LAMMPS Description

5660  atoms
5160  bonds
4660  angles
0  dihedrals
0  impropers

11  atom types
7  bond types
10 extra bond per atom
4  angle types
0  dihedral types
0  improper types

-300 300 xlo xhi
-300 300 ylo yhi
0 300 zlo zhi

Masses

1 1000  # Anchor
2 450  # NephL
3 450  # pY
4 11000  # SH2
5 7000  # SH3
6 450  # nckL
7 450  # PRM
8 450  # nwL
9 450  # VCA
10 450  # Arp
11 20000  # arpL

Atoms

1 1 1 0 76 -163 5
2 1 2 0 76 -163 15
3 1 2 0 76 -163 25
4 1 3 0 76 -163 35
5 1 2 0 76 -163 45
6 1 2 0 76 -163 55
7 1 3 0 76 -163 65
8 1 2 0 76 -163 75
9 1 2 0 76 -163 85
10 1 3 0 76 -163 95
11 2 1 0 -69 -216 5
12 2 2 0 -69 -216 15
13 2 2 0 -69 -216 25
14 2 3 0 -69 -216 35
15 2 2 0 -69 -216 45
16 2 2 0 -69 -216 55
17 2 3 0 -69 -216 65
18 2 2 0 -69 -216 75
19 2 2 0 -69 -216 85
20 2 3 0 -69 -216 95
21 3 1 0 157 7 5
22 3 2 0 157 7 15
23 3 2 0 157 7 25
24 3 3 0 157 7 35
25 3 2 0 157 7 45
26 3 2 0 157 7 55
27 3 3 0 157 7 65
28 3 2 0 157 7 75
29 3 2 0 157 7 85
30 3 3 0 157 7 95
31 4 1 0 -235 -94 5
32 4 2 0 -235 -94 15
33 4 2 0 -235 -94 25
34 4 3 0 -235 -94 35
35 4 2 0 -235 -94 45
36 4 2 0 -235 -94 55
37 4 3 0 -235 -94 65
38 4 2 0 -235 -94 75
39 4 2 0 -235 -94 85
40 4 3 0 -235 -94 95
41 5 1 0 -55 5 5
42 5 2 0 -55 5 15
43 5 2 0 -55 5 25
44 5 3 0 -55 5 35
45 5 2 0 -55 5 45
46 5 2 0 -55 5 55
47 5 3 0 -55 5 65
48 5 2 0 -55 5 75
49 5 2 0 -55 5 85
50 5 3 0 -55 5 95
51 6 1 0 244 19 5
52 6 2 0 244 19 15
53 6 2 0 244 19 25
54 6 3 0 244 19 35
55 6 2 0 244 19 45
56 6 2 0 244 19 55
57 6 3 0 244 19 65
58 6 2 0 244 19 75
59 6 2 0 244 19 85
60 6 3 0 244 19 95
61 7 1 0 -278 240 5
62 7 2 0 -278 240 15
63 7 2 0 -278 240 25
64 7 3 0 -278 240 35
65 7 2 0 -278 240 45
66 7 2 0 -278 240 55
67 7 3 0 -278 240 65
68 7 2 0 -278 240 75
69 7 2 0 -278 240 85
70 7 3 0 -278 240 95
71 8 1 0 64 -135 5
72 8 2 0 64 -135 15
73 8 2 0 64 -135 25
74 8 3 0 64 -135 35
75 8 2 0 64 -135 45
76 8 2 0 64 -135 55
77 8 3 0 64 -135 65
78 8 2 0 64 -135 75
79 8 2 0 64 -135 85
80 8 3 0 64 -135 95
81 9 1 0 271 -136 5
82 9 2 0 271 -136 15
83 9 2 0 271 -136 25
84 9 3 0 271 -136 35
85 9 2 0 271 -136 45
86 9 2 0 271 -136 55
87 9 3 0 271 -136 65
88 9 2 0 271 -136 75
89 9 2 0 271 -136 85
90 9 3 0 271 -136 95
91 10 1 0 234 -201 5
92 10 2 0 234 -201 15
93 10 2 0 234 -201 25
94 10 3 0 234 -201 35
95 10 2 0 234 -201 45
96 10 2 0 234 -201 55
97 10 3 0 234 -201 65
98 10 2 0 234 -201 75
99 10 2 0 234 -201 85
100 10 3 0 234 -201 95
101 11 1 0 228 -85 5
102 11 2 0 228 -85 15
103 11 2 0 228 -85 25
104 11 3 0 228 -85 35
105 11 2 0 228 -85 45
106 11 2 0 228 -85 55
107 11 3 0 228 -85 65
108 11 2 0 228 -85 75
109 11 2 0 228 -85 85
110 11 3 0 228 -85 95
111 12 1 0 -181 -77 5
112 12 2 0 -181 -77 15
113 12 2 0 -181 -77 25
114 12 3 0 -181 -77 35
115 12 2 0 -181 -77 45
116 12 2 0 -181 -77 55
117 12 3 0 -181 -77 65
118 12 2 0 -181 -77 75
119 12 2 0 -181 -77 85
120 12 3 0 -181 -77 95
121 13 1 0 50 -217 5
122 13 2 0 50 -217 15
123 13 2 0 50 -217 25
124 13 3 0 50 -217 35
125 13 2 0 50 -217 45
126 13 2 0 50 -217 55
127 13 3 0 50 -217 65
128 13 2 0 50 -217 75
129 13 2 0 50 -217 85
130 13 3 0 50 -217 95
131 14 1 0 60 -250 5
132 14 2 0 60 -250 15
133 14 2 0 60 -250 25
134 14 3 0 60 -250 35
135 14 2 0 60 -250 45
136 14 2 0 60 -250 55
137 14 3 0 60 -250 65
138 14 2 0 60 -250 75
139 14 2 0 60 -250 85
140 14 3 0 60 -250 95
141 15 1 0 211 -96 5
142 15 2 0 211 -96 15
143 15 2 0 211 -96 25
144 15 3 0 211 -96 35
145 15 2 0 211 -96 45
146 15 2 0 211 -96 55
147 15 3 0 211 -96 65
148 15 2 0 211 -96 75
149 15 2 0 211 -96 85
150 15 3 0 211 -96 95
151 16 1 0 -167 111 5
152 16 2 0 -167 111 15
153 16 2 0 -167 111 25
154 16 3 0 -167 111 35
155 16 2 0 -167 111 45
156 16 2 0 -167 111 55
157 16 3 0 -167 111 65
158 16 2 0 -167 111 75
159 16 2 0 -167 111 85
160 16 3 0 -167 111 95
161 17 1 0 -8 18 5
162 17 2 0 -8 18 15
163 17 2 0 -8 18 25
164 17 3 0 -8 18 35
165 17 2 0 -8 18 45
166 17 2 0 -8 18 55
167 17 3 0 -8 18 65
168 17 2 0 -8 18 75
169 17 2 0 -8 18 85
170 17 3 0 -8 18 95
171 18 1 0 17 -33 5
172 18 2 0 17 -33 15
173 18 2 0 17 -33 25
174 18 3 0 17 -33 35
175 18 2 0 17 -33 45
176 18 2 0 17 -33 55
177 18 3 0 17 -33 65
178 18 2 0 17 -33 75
179 18 2 0 17 -33 85
180 18 3 0 17 -33 95
181 19 1 0 24 106 5
182 19 2 0 24 106 15
183 19 2 0 24 106 25
184 19 3 0 24 106 35
185 19 2 0 24 106 45
186 19 2 0 24 106 55
187 19 3 0 24 106 65
188 19 2 0 24 106 75
189 19 2 0 24 106 85
190 19 3 0 24 106 95
191 20 1 0 -125 112 5
192 20 2 0 -125 112 15
193 20 2 0 -125 112 25
194 20 3 0 -125 112 35
195 20 2 0 -125 112 45
196 20 2 0 -125 112 55
197 20 3 0 -125 112 65
198 20 2 0 -125 112 75
199 20 2 0 -125 112 85
200 20 3 0 -125 112 95
201 21 1 0 36 -264 5
202 21 2 0 36 -264 15
203 21 2 0 36 -264 25
204 21 3 0 36 -264 35
205 21 2 0 36 -264 45
206 21 2 0 36 -264 55
207 21 3 0 36 -264 65
208 21 2 0 36 -264 75
209 21 2 0 36 -264 85
210 21 3 0 36 -264 95
211 22 1 0 129 -219 5
212 22 2 0 129 -219 15
213 22 2 0 129 -219 25
214 22 3 0 129 -219 35
215 22 2 0 129 -219 45
216 22 2 0 129 -219 55
217 22 3 0 129 -219 65
218 22 2 0 129 -219 75
219 22 2 0 129 -219 85
220 22 3 0 129 -219 95
221 23 1 0 253 -246 5
222 23 2 0 253 -246 15
223 23 2 0 253 -246 25
224 23 3 0 253 -246 35
225 23 2 0 253 -246 45
226 23 2 0 253 -246 55
227 23 3 0 253 -246 65
228 23 2 0 253 -246 75
229 23 2 0 253 -246 85
230 23 3 0 253 -246 95
231 24 1 0 -6 89 5
232 24 2 0 -6 89 15
233 24 2 0 -6 89 25
234 24 3 0 -6 89 35
235 24 2 0 -6 89 45
236 24 2 0 -6 89 55
237 24 3 0 -6 89 65
238 24 2 0 -6 89 75
239 24 2 0 -6 89 85
240 24 3 0 -6 89 95
241 25 1 0 -42 -84 5
242 25 2 0 -42 -84 15
243 25 2 0 -42 -84 25
244 25 3 0 -42 -84 35
245 25 2 0 -42 -84 45
246 25 2 0 -42 -84 55
247 25 3 0 -42 -84 65
248 25 2 0 -42 -84 75
249 25 2 0 -42 -84 85
250 25 3 0 -42 -84 95
251 26 1 0 33 -151 5
252 26 2 0 33 -151 15
253 26 2 0 33 -151 25
254 26 3 0 33 -151 35
255 26 2 0 33 -151 45
256 26 2 0 33 -151 55
257 26 3 0 33 -151 65
258 26 2 0 33 -151 75
259 26 2 0 33 -151 85
260 26 3 0 33 -151 95
261 27 1 0 272 -276 5
262 27 2 0 272 -276 15
263 27 2 0 272 -276 25
264 27 3 0 272 -276 35
265 27 2 0 272 -276 45
266 27 2 0 272 -276 55
267 27 3 0 272 -276 65
268 27 2 0 272 -276 75
269 27 2 0 272 -276 85
270 27 3 0 272 -276 95
271 28 1 0 203 87 5
272 28 2 0 203 87 15
273 28 2 0 203 87 25
274 28 3 0 203 87 35
275 28 2 0 203 87 45
276 28 2 0 203 87 55
277 28 3 0 203 87 65
278 28 2 0 203 87 75
279 28 2 0 203 87 85
280 28 3 0 203 87 95
281 29 1 0 257 -104 5
282 29 2 0 257 -104 15
283 29 2 0 257 -104 25
284 29 3 0 257 -104 35
285 29 2 0 257 -104 45
286 29 2 0 257 -104 55
287 29 3 0 257 -104 65
288 29 2 0 257 -104 75
289 29 2 0 257 -104 85
290 29 3 0 257 -104 95
291 30 1 0 -25 -2 5
292 30 2 0 -25 -2 15
293 30 2 0 -25 -2 25
294 30 3 0 -25 -2 35
295 30 2 0 -25 -2 45
296 30 2 0 -25 -2 55
297 30 3 0 -25 -2 65
298 30 2 0 -25 -2 75
299 30 2 0 -25 -2 85
300 30 3 0 -25 -2 95
301 31 1 0 -86 12 5
302 31 2 0 -86 12 15
303 31 2 0 -86 12 25
304 31 3 0 -86 12 35
305 31 2 0 -86 12 45
306 31 2 0 -86 12 55
307 31 3 0 -86 12 65
308 31 2 0 -86 12 75
309 31 2 0 -86 12 85
310 31 3 0 -86 12 95
311 32 1 0 -204 -228 5
312 32 2 0 -204 -228 15
313 32 2 0 -204 -228 25
314 32 3 0 -204 -228 35
315 32 2 0 -204 -228 45
316 32 2 0 -204 -228 55
317 32 3 0 -204 -228 65
318 32 2 0 -204 -228 75
319 32 2 0 -204 -228 85
320 32 3 0 -204 -228 95
321 33 1 0 43 255 5
322 33 2 0 43 255 15
323 33 2 0 43 255 25
324 33 3 0 43 255 35
325 33 2 0 43 255 45
326 33 2 0 43 255 55
327 33 3 0 43 255 65
328 33 2 0 43 255 75
329 33 2 0 43 255 85
330 33 3 0 43 255 95
331 34 1 0 -242 51 5
332 34 2 0 -242 51 15
333 34 2 0 -242 51 25
334 34 3 0 -242 51 35
335 34 2 0 -242 51 45
336 34 2 0 -242 51 55
337 34 3 0 -242 51 65
338 34 2 0 -242 51 75
339 34 2 0 -242 51 85
340 34 3 0 -242 51 95
341 35 1 0 -267 -214 5
342 35 2 0 -267 -214 15
343 35 2 0 -267 -214 25
344 35 3 0 -267 -214 35
345 35 2 0 -267 -214 45
346 35 2 0 -267 -214 55
347 35 3 0 -267 -214 65
348 35 2 0 -267 -214 75
349 35 2 0 -267 -214 85
350 35 3 0 -267 -214 95
351 36 1 0 -68 132 5
352 36 2 0 -68 132 15
353 36 2 0 -68 132 25
354 36 3 0 -68 132 35
355 36 2 0 -68 132 45
356 36 2 0 -68 132 55
357 36 3 0 -68 132 65
358 36 2 0 -68 132 75
359 36 2 0 -68 132 85
360 36 3 0 -68 132 95
361 37 1 0 197 -154 5
362 37 2 0 197 -154 15
363 37 2 0 197 -154 25
364 37 3 0 197 -154 35
365 37 2 0 197 -154 45
366 37 2 0 197 -154 55
367 37 3 0 197 -154 65
368 37 2 0 197 -154 75
369 37 2 0 197 -154 85
370 37 3 0 197 -154 95
371 38 1 0 -153 70 5
372 38 2 0 -153 70 15
373 38 2 0 -153 70 25
374 38 3 0 -153 70 35
375 38 2 0 -153 70 45
376 38 2 0 -153 70 55
377 38 3 0 -153 70 65
378 38 2 0 -153 70 75
379 38 2 0 -153 70 85
380 38 3 0 -153 70 95
381 39 1 0 -66 -25 5
382 39 2 0 -66 -25 15
383 39 2 0 -66 -25 25
384 39 3 0 -66 -25 35
385 39 2 0 -66 -25 45
386 39 2 0 -66 -25 55
387 39 3 0 -66 -25 65
388 39 2 0 -66 -25 75
389 39 2 0 -66 -25 85
390 39 3 0 -66 -25 95
391 40 1 0 -27 238 5
392 40 2 0 -27 238 15
393 40 2 0 -27 238 25
394 40 3 0 -27 238 35
395 40 2 0 -27 238 45
396 40 2 0 -27 238 55
397 40 3 0 -27 238 65
398 40 2 0 -27 238 75
399 40 2 0 -27 238 85
400 40 3 0 -27 238 95
401 41 1 0 -110 191 5
402 41 2 0 -110 191 15
403 41 2 0 -110 191 25
404 41 3 0 -110 191 35
405 41 2 0 -110 191 45
406 41 2 0 -110 191 55
407 41 3 0 -110 191 65
408 41 2 0 -110 191 75
409 41 2 0 -110 191 85
410 41 3 0 -110 191 95
411 42 1 0 -251 265 5
412 42 2 0 -251 265 15
413 42 2 0 -251 265 25
414 42 3 0 -251 265 35
415 42 2 0 -251 265 45
416 42 2 0 -251 265 55
417 42 3 0 -251 265 65
418 42 2 0 -251 265 75
419 42 2 0 -251 265 85
420 42 3 0 -251 265 95
421 43 1 0 -228 150 5
422 43 2 0 -228 150 15
423 43 2 0 -228 150 25
424 43 3 0 -228 150 35
425 43 2 0 -228 150 45
426 43 2 0 -228 150 55
427 43 3 0 -228 150 65
428 43 2 0 -228 150 75
429 43 2 0 -228 150 85
430 43 3 0 -228 150 95
431 44 1 0 -261 260 5
432 44 2 0 -261 260 15
433 44 2 0 -261 260 25
434 44 3 0 -261 260 35
435 44 2 0 -261 260 45
436 44 2 0 -261 260 55
437 44 3 0 -261 260 65
438 44 2 0 -261 260 75
439 44 2 0 -261 260 85
440 44 3 0 -261 260 95
441 45 1 0 -78 -266 5
442 45 2 0 -78 -266 15
443 45 2 0 -78 -266 25
444 45 3 0 -78 -266 35
445 45 2 0 -78 -266 45
446 45 2 0 -78 -266 55
447 45 3 0 -78 -266 65
448 45 2 0 -78 -266 75
449 45 2 0 -78 -266 85
450 45 3 0 -78 -266 95
451 46 1 0 -90 267 5
452 46 2 0 -90 267 15
453 46 2 0 -90 267 25
454 46 3 0 -90 267 35
455 46 2 0 -90 267 45
456 46 2 0 -90 267 55
457 46 3 0 -90 267 65
458 46 2 0 -90 267 75
459 46 2 0 -90 267 85
460 46 3 0 -90 267 95
461 47 1 0 11 248 5
462 47 2 0 11 248 15
463 47 2 0 11 248 25
464 47 3 0 11 248 35
465 47 2 0 11 248 45
466 47 2 0 11 248 55
467 47 3 0 11 248 65
468 47 2 0 11 248 75
469 47 2 0 11 248 85
470 47 3 0 11 248 95
471 48 1 0 161 268 5
472 48 2 0 161 268 15
473 48 2 0 161 268 25
474 48 3 0 161 268 35
475 48 2 0 161 268 45
476 48 2 0 161 268 55
477 48 3 0 161 268 65
478 48 2 0 161 268 75
479 48 2 0 161 268 85
480 48 3 0 161 268 95
481 49 1 0 111 239 5
482 49 2 0 111 239 15
483 49 2 0 111 239 25
484 49 3 0 111 239 35
485 49 2 0 111 239 45
486 49 2 0 111 239 55
487 49 3 0 111 239 65
488 49 2 0 111 239 75
489 49 2 0 111 239 85
490 49 3 0 111 239 95
491 50 1 0 80 53 5
492 50 2 0 80 53 15
493 50 2 0 80 53 25
494 50 3 0 80 53 35
495 50 2 0 80 53 45
496 50 2 0 80 53 55
497 50 3 0 80 53 65
498 50 2 0 80 53 75
499 50 2 0 80 53 85
500 50 3 0 80 53 95
501 51 1 0 131 103 5
502 51 2 0 131 103 15
503 51 2 0 131 103 25
504 51 3 0 131 103 35
505 51 2 0 131 103 45
506 51 2 0 131 103 55
507 51 3 0 131 103 65
508 51 2 0 131 103 75
509 51 2 0 131 103 85
510 51 3 0 131 103 95
511 52 1 0 -1 -121 5
512 52 2 0 -1 -121 15
513 52 2 0 -1 -121 25
514 52 3 0 -1 -121 35
515 52 2 0 -1 -121 45
516 52 2 0 -1 -121 55
517 52 3 0 -1 -121 65
518 52 2 0 -1 -121 75
519 52 2 0 -1 -121 85
520 52 3 0 -1 -121 95
521 53 1 0 -83 80 5
522 53 2 0 -83 80 15
523 53 2 0 -83 80 25
524 53 3 0 -83 80 35
525 53 2 0 -83 80 45
526 53 2 0 -83 80 55
527 53 3 0 -83 80 65
528 53 2 0 -83 80 75
529 53 2 0 -83 80 85
530 53 3 0 -83 80 95
531 54 1 0 -212 -57 5
532 54 2 0 -212 -57 15
533 54 2 0 -212 -57 25
534 54 3 0 -212 -57 35
535 54 2 0 -212 -57 45
536 54 2 0 -212 -57 55
537 54 3 0 -212 -57 65
538 54 2 0 -212 -57 75
539 54 2 0 -212 -57 85
540 54 3 0 -212 -57 95
541 55 1 0 -145 -158 5
542 55 2 0 -145 -158 15
543 55 2 0 -145 -158 25
544 55 3 0 -145 -158 35
545 55 2 0 -145 -158 45
546 55 2 0 -145 -158 55
547 55 3 0 -145 -158 65
548 55 2 0 -145 -158 75
549 55 2 0 -145 -158 85
550 55 3 0 -145 -158 95
551 56 1 0 -133 -177 5
552 56 2 0 -133 -177 15
553 56 2 0 -133 -177 25
554 56 3 0 -133 -177 35
555 56 2 0 -133 -177 45
556 56 2 0 -133 -177 55
557 56 3 0 -133 -177 65
558 56 2 0 -133 -177 75
559 56 2 0 -133 -177 85
560 56 3 0 -133 -177 95
561 57 1 0 -264 -14 5
562 57 2 0 -264 -14 15
563 57 2 0 -264 -14 25
564 57 3 0 -264 -14 35
565 57 2 0 -264 -14 45
566 57 2 0 -264 -14 55
567 57 3 0 -264 -14 65
568 57 2 0 -264 -14 75
569 57 2 0 -264 -14 85
570 57 3 0 -264 -14 95
571 58 1 0 -182 186 5
572 58 2 0 -182 186 15
573 58 2 0 -182 186 25
574 58 3 0 -182 186 35
575 58 2 0 -182 186 45
576 58 2 0 -182 186 55
577 58 3 0 -182 186 65
578 58 2 0 -182 186 75
579 58 2 0 -182 186 85
580 58 3 0 -182 186 95
581 59 1 0 158 -72 5
582 59 2 0 158 -72 15
583 59 2 0 158 -72 25
584 59 3 0 158 -72 35
585 59 2 0 158 -72 45
586 59 2 0 158 -72 55
587 59 3 0 158 -72 65
588 59 2 0 158 -72 75
589 59 2 0 158 -72 85
590 59 3 0 158 -72 95
591 60 1 0 -93 -11 5
592 60 2 0 -93 -11 15
593 60 2 0 -93 -11 25
594 60 3 0 -93 -11 35
595 60 2 0 -93 -11 45
596 60 2 0 -93 -11 55
597 60 3 0 -93 -11 65
598 60 2 0 -93 -11 75
599 60 2 0 -93 -11 85
600 60 3 0 -93 -11 95
601 61 1 0 -85 -101 5
602 61 2 0 -85 -101 15
603 61 2 0 -85 -101 25
604 61 3 0 -85 -101 35
605 61 2 0 -85 -101 45
606 61 2 0 -85 -101 55
607 61 3 0 -85 -101 65
608 61 2 0 -85 -101 75
609 61 2 0 -85 -101 85
610 61 3 0 -85 -101 95
611 62 1 0 -127 -65 5
612 62 2 0 -127 -65 15
613 62 2 0 -127 -65 25
614 62 3 0 -127 -65 35
615 62 2 0 -127 -65 45
616 62 2 0 -127 -65 55
617 62 3 0 -127 -65 65
618 62 2 0 -127 -65 75
619 62 2 0 -127 -65 85
620 62 3 0 -127 -65 95
621 63 1 0 28 -152 5
622 63 2 0 28 -152 15
623 63 2 0 28 -152 25
624 63 3 0 28 -152 35
625 63 2 0 28 -152 45
626 63 2 0 28 -152 55
627 63 3 0 28 -152 65
628 63 2 0 28 -152 75
629 63 2 0 28 -152 85
630 63 3 0 28 -152 95
631 64 1 0 -51 -22 5
632 64 2 0 -51 -22 15
633 64 2 0 -51 -22 25
634 64 3 0 -51 -22 35
635 64 2 0 -51 -22 45
636 64 2 0 -51 -22 55
637 64 3 0 -51 -22 65
638 64 2 0 -51 -22 75
639 64 2 0 -51 -22 85
640 64 3 0 -51 -22 95
641 65 1 0 -24 -114 5
642 65 2 0 -24 -114 15
643 65 2 0 -24 -114 25
644 65 3 0 -24 -114 35
645 65 2 0 -24 -114 45
646 65 2 0 -24 -114 55
647 65 3 0 -24 -114 65
648 65 2 0 -24 -114 75
649 65 2 0 -24 -114 85
650 65 3 0 -24 -114 95
651 66 1 0 180 32 5
652 66 2 0 180 32 15
653 66 2 0 180 32 25
654 66 3 0 180 32 35
655 66 2 0 180 32 45
656 66 2 0 180 32 55
657 66 3 0 180 32 65
658 66 2 0 180 32 75
659 66 2 0 180 32 85
660 66 3 0 180 32 95
661 67 1 0 115 95 5
662 67 2 0 115 95 15
663 67 2 0 115 95 25
664 67 3 0 115 95 35
665 67 2 0 115 95 45
666 67 2 0 115 95 55
667 67 3 0 115 95 65
668 67 2 0 115 95 75
669 67 2 0 115 95 85
670 67 3 0 115 95 95
671 68 1 0 187 -235 5
672 68 2 0 187 -235 15
673 68 2 0 187 -235 25
674 68 3 0 187 -235 35
675 68 2 0 187 -235 45
676 68 2 0 187 -235 55
677 68 3 0 187 -235 65
678 68 2 0 187 -235 75
679 68 2 0 187 -235 85
680 68 3 0 187 -235 95
681 69 1 0 -236 236 5
682 69 2 0 -236 236 15
683 69 2 0 -236 236 25
684 69 3 0 -236 236 35
685 69 2 0 -236 236 45
686 69 2 0 -236 236 55
687 69 3 0 -236 236 65
688 69 2 0 -236 236 75
689 69 2 0 -236 236 85
690 69 3 0 -236 236 95
691 70 1 0 121 -68 5
692 70 2 0 121 -68 15
693 70 2 0 121 -68 25
694 70 3 0 121 -68 35
695 70 2 0 121 -68 45
696 70 2 0 121 -68 55
697 70 3 0 121 -68 65
698 70 2 0 121 -68 75
699 70 2 0 121 -68 85
700 70 3 0 121 -68 95
701 71 1 0 -221 -78 5
702 71 2 0 -221 -78 15
703 71 2 0 -221 -78 25
704 71 3 0 -221 -78 35
705 71 2 0 -221 -78 45
706 71 2 0 -221 -78 55
707 71 3 0 -221 -78 65
708 71 2 0 -221 -78 75
709 71 2 0 -221 -78 85
710 71 3 0 -221 -78 95
711 72 1 0 215 226 5
712 72 2 0 215 226 15
713 72 2 0 215 226 25
714 72 3 0 215 226 35
715 72 2 0 215 226 45
716 72 2 0 215 226 55
717 72 3 0 215 226 65
718 72 2 0 215 226 75
719 72 2 0 215 226 85
720 72 3 0 215 226 95
721 73 1 0 -34 98 5
722 73 2 0 -34 98 15
723 73 2 0 -34 98 25
724 73 3 0 -34 98 35
725 73 2 0 -34 98 45
726 73 2 0 -34 98 55
727 73 3 0 -34 98 65
728 73 2 0 -34 98 75
729 73 2 0 -34 98 85
730 73 3 0 -34 98 95
731 74 1 0 -97 90 5
732 74 2 0 -97 90 15
733 74 2 0 -97 90 25
734 74 3 0 -97 90 35
735 74 2 0 -97 90 45
736 74 2 0 -97 90 55
737 74 3 0 -97 90 65
738 74 2 0 -97 90 75
739 74 2 0 -97 90 85
740 74 3 0 -97 90 95
741 75 1 0 -61 -24 5
742 75 2 0 -61 -24 15
743 75 2 0 -61 -24 25
744 75 3 0 -61 -24 35
745 75 2 0 -61 -24 45
746 75 2 0 -61 -24 55
747 75 3 0 -61 -24 65
748 75 2 0 -61 -24 75
749 75 2 0 -61 -24 85
750 75 3 0 -61 -24 95
751 76 1 0 90 -93 5
752 76 2 0 90 -93 15
753 76 2 0 90 -93 25
754 76 3 0 90 -93 35
755 76 2 0 90 -93 45
756 76 2 0 90 -93 55
757 76 3 0 90 -93 65
758 76 2 0 90 -93 75
759 76 2 0 90 -93 85
760 76 3 0 90 -93 95
761 77 1 0 226 -128 5
762 77 2 0 226 -128 15
763 77 2 0 226 -128 25
764 77 3 0 226 -128 35
765 77 2 0 226 -128 45
766 77 2 0 226 -128 55
767 77 3 0 226 -128 65
768 77 2 0 226 -128 75
769 77 2 0 226 -128 85
770 77 3 0 226 -128 95
771 78 1 0 -53 14 5
772 78 2 0 -53 14 15
773 78 2 0 -53 14 25
774 78 3 0 -53 14 35
775 78 2 0 -53 14 45
776 78 2 0 -53 14 55
777 78 3 0 -53 14 65
778 78 2 0 -53 14 75
779 78 2 0 -53 14 85
780 78 3 0 -53 14 95
781 79 1 0 75 69 5
782 79 2 0 75 69 15
783 79 2 0 75 69 25
784 79 3 0 75 69 35
785 79 2 0 75 69 45
786 79 2 0 75 69 55
787 79 3 0 75 69 65
788 79 2 0 75 69 75
789 79 2 0 75 69 85
790 79 3 0 75 69 95
791 80 1 0 -79 -274 5
792 80 2 0 -79 -274 15
793 80 2 0 -79 -274 25
794 80 3 0 -79 -274 35
795 80 2 0 -79 -274 45
796 80 2 0 -79 -274 55
797 80 3 0 -79 -274 65
798 80 2 0 -79 -274 75
799 80 2 0 -79 -274 85
800 80 3 0 -79 -274 95
801 81 4 0 -215.524924 -29.110136 159.609548
802 81 6 0 -208.955400 -32.352671 166.415966
803 81 6 0 -202.385876 -35.595206 173.222383
804 81 5 0 -195.816352 -38.837741 180.028801
805 81 6 0 -189.246828 -42.080277 186.835218
806 81 6 0 -182.677304 -45.322812 193.641636
807 81 5 0 -176.107780 -48.565347 200.448053
808 81 6 0 -169.538256 -51.807882 207.254471
809 81 6 0 -162.968732 -55.050418 214.060889
810 81 5 0 -156.399208 -58.292953 220.867306
811 82 4 0 168.594905 -241.149854 266.425433
812 82 6 0 176.326666 -236.376240 262.250211
813 82 6 0 184.058428 -231.602626 258.074990
814 82 5 0 191.790190 -226.829012 253.899769
815 82 6 0 199.521952 -222.055399 249.724548
816 82 6 0 207.253713 -217.281785 245.549326
817 82 5 0 214.985475 -212.508171 241.374105
818 82 6 0 222.717237 -207.734558 237.198884
819 82 6 0 230.448999 -202.960944 233.023663
820 82 5 0 238.180760 -198.187330 228.848441
821 83 4 0 11.382661 54.983271 230.640097
822 83 6 0 20.660929 55.056397 226.910701
823 83 6 0 29.939197 55.129523 223.181306
824 83 5 0 39.217465 55.202649 219.451911
825 83 6 0 48.495734 55.275775 215.722515
826 83 6 0 57.774002 55.348901 211.993120
827 83 5 0 67.052270 55.422027 208.263725
828 83 6 0 76.330539 55.495154 204.534330
829 83 6 0 85.608807 55.568280 200.804934
830 83 5 0 94.887075 55.641406 197.075539
831 84 4 0 -284.284420 162.005097 185.472894
832 84 6 0 -279.408982 153.901555 188.722926
833 84 6 0 -274.533544 145.798013 191.972958
834 84 5 0 -269.658106 137.694471 195.222991
835 84 6 0 -264.782668 129.590928 198.473023
836 84 6 0 -259.907230 121.487386 201.723055
837 84 5 0 -255.031792 113.383844 204.973087
838 84 6 0 -250.156354 105.280302 208.223120
839 84 6 0 -245.280916 97.176760 211.473152
840 84 5 0 -240.405479 89.073218 214.723184
841 85 4 0 -67.856561 -38.184951 249.967246
842 85 6 0 -61.718692 -45.812600 252.003307
843 85 6 0 -55.580824 -53.440248 254.039368
844 85 5 0 -49.442955 -61.067897 256.075429
845 85 6 0 -43.305086 -68.695545 258.111490
846 85 6 0 -37.167217 -76.323193 260.147551
847 85 5 0 -31.029348 -83.950842 262.183612
848 85 6 0 -24.891479 -91.578490 264.219673
849 85 6 0 -18.753610 -99.206139 266.255734
850 85 5 0 -12.615741 -106.833787 268.291795
851 86 4 0 154.956069 -73.544553 230.823591
852 86 6 0 161.049052 -65.696062 229.693660
853 86 6 0 167.142035 -57.847571 228.563729
854 86 5 0 173.235018 -49.999080 227.433798
855 86 6 0 179.328001 -42.150588 226.303867
856 86 6 0 185.420984 -34.302097 225.173936
857 86 5 0 191.513967 -26.453606 224.044005
858 86 6 0 197.606950 -18.605115 222.914074
859 86 6 0 203.699933 -10.756624 221.784143
860 86 5 0 209.792916 -2.908133 220.654212
861 87 4 0 120.593228 -7.832107 208.854016
862 87 6 0 129.367179 -12.458460 207.583329
863 87 6 0 138.141131 -17.084812 206.312643
864 87 5 0 146.915082 -21.711164 205.041956
865 87 6 0 155.689033 -26.337517 203.771270
866 87 6 0 164.462984 -30.963869 202.500583
867 87 5 0 173.236935 -35.590222 201.229896
868 87 6 0 182.010886 -40.216574 199.959210
869 87 6 0 190.784838 -44.842926 198.688523
870 87 5 0 199.558789 -49.469279 197.417837
871 88 4 0 -82.933599 -210.208502 140.343086
872 88 6 0 -74.312404 -210.749185 135.304966
873 88 6 0 -65.691209 -211.289868 130.266845
874 88 5 0 -57.070014 -211.830551 125.228724
875 88 6 0 -48.448820 -212.371234 120.190603
876 88 6 0 -39.827625 -212.911917 115.152483
877 88 5 0 -31.206430 -213.452600 110.114362
878 88 6 0 -22.585235 -213.993283 105.076241
879 88 6 0 -13.964040 -214.533966 100.038121
880 88 5 0 -5.342845 -215.074649 95.000000
881 89 4 0 -44.275505 253.309359 194.459186
882 89 6 0 -35.187921 252.999493 198.620891
883 89 6 0 -26.100336 252.689628 202.782596
884 89 5 0 -17.012751 252.379763 206.944301
885 89 6 0 -7.925166 252.069897 211.106005
886 89 6 0 1.162418 251.760032 215.267710
887 89 5 0 10.250003 251.450166 219.429415
888 89 6 0 19.337588 251.140301 223.591120
889 89 6 0 28.425172 250.830436 227.752825
890 89 5 0 37.512757 250.520570 231.914529
891 90 4 0 24.463952 191.612075 165.377686
892 90 6 0 24.697085 201.480789 163.779519
893 90 6 0 24.930218 211.349503 162.181352
894 90 5 0 25.163351 221.218217 160.583185
895 90 6 0 25.396484 231.086930 158.985017
896 90 6 0 25.629617 240.955644 157.386850
897 90 5 0 25.862750 250.824358 155.788683
898 90 6 0 26.095883 260.693071 154.190516
899 90 6 0 26.329016 270.561785 152.592349
900 90 5 0 26.562149 280.430499 150.994181
901 91 4 0 56.222972 155.951987 198.079485
902 91 6 0 53.846670 165.664904 198.190979
903 91 6 0 51.470368 175.377821 198.302472
904 91 5 0 49.094066 185.090738 198.413965
905 91 6 0 46.717764 194.803656 198.525459
906 91 6 0 44.341462 204.516573 198.636952
907 91 5 0 41.965160 214.229490 198.748445
908 91 6 0 39.588858 223.942407 198.859938
909 91 6 0 37.212556 233.655324 198.971432
910 91 5 0 34.836254 243.368241 199.082925
911 92 4 0 161.822796 222.100361 215.691958
912 92 6 0 153.836386 227.931413 214.203301
913 92 6 0 145.849977 233.762465 212.714644
914 92 5 0 137.863568 239.593517 211.225987
915 92 6 0 129.877158 245.424569 209.737331
916 92 6 0 121.890749 251.255621 208.248674
917 92 5 0 113.904340 257.086673 206.760017
918 92 6 0 105.917930 262.917725 205.271361
919 92 6 0 97.931521 268.748777 203.782704
920 92 5 0 89.945112 274.579828 202.294047
921 93 4 0 -152.921785 62.416145 194.773098
922 93 6 0 -152.101506 67.631980 186.280618
923 93 6 0 -151.281228 72.847815 177.788138
924 93 5 0 -150.460949 78.063649 169.295658
925 93 6 0 -149.640670 83.279484 160.803179
926 93 6 0 -148.820391 88.495319 152.310699
927 93 5 0 -148.000113 93.711154 143.818219
928 93 6 0 -147.179834 98.926988 135.325740
929 93 6 0 -146.359555 104.142823 126.833260
930 93 5 0 -145.539276 109.358658 118.340780
931 94 4 0 -183.910812 110.326585 166.880187
932 94 6 0 -183.094924 120.195341 168.273737
933 94 6 0 -182.279036 130.064097 169.667287
934 94 5 0 -181.463148 139.932853 171.060837
935 94 6 0 -180.647260 149.801609 172.454387
936 94 6 0 -179.831372 159.670365 173.847937
937 94 5 0 -179.015484 169.539121 175.241487
938 94 6 0 -178.199596 179.407877 176.635037
939 94 6 0 -177.383708 189.276633 178.028587
940 94 5 0 -176.567820 199.145389 179.422137
941 95 4 0 -191.758770 -137.090566 95.000051
942 95 6 0 -187.955626 -145.518661 98.808373
943 95 6 0 -184.152483 -153.946755 102.616695
944 95 5 0 -180.349339 -162.374850 106.425018
945 95 6 0 -176.546195 -170.802944 110.233340
946 95 6 0 -172.743051 -179.231039 114.041663
947 95 5 0 -168.939907 -187.659133 117.849985
948 95 6 0 -165.136763 -196.087228 121.658307
949 95 6 0 -161.333619 -204.515322 125.466630
950 95 5 0 -157.530475 -212.943417 129.274952
951 96 4 0 -20.560453 -149.938037 174.287500
952 96 6 0 -20.296726 -159.861731 173.083032
953 96 6 0 -20.032998 -169.785425 171.878564
954 96 5 0 -19.769271 -179.709119 170.674096
955 96 6 0 -19.505543 -189.632813 169.469628
956 96 6 0 -19.241816 -199.556507 168.265159
957 96 5 0 -18.978089 -209.480201 167.060691
958 96 6 0 -18.714361 -219.403895 165.856223
959 96 6 0 -18.450634 -229.327589 164.651755
960 96 5 0 -18.186907 -239.251283 163.447287
961 97 4 0 91.352208 -96.351964 220.281185
962 97 6 0 86.628506 -90.626341 213.580149
963 97 6 0 81.904805 -84.900719 206.879112
964 97 5 0 77.181103 -79.175096 200.178076
965 97 6 0 72.457402 -73.449474 193.477039
966 97 6 0 67.733700 -67.723851 186.776003
967 97 5 0 63.009998 -61.998229 180.074966
968 97 6 0 58.286297 -56.272606 173.373930
969 97 6 0 53.562595 -50.546983 166.672894
970 97 5 0 48.838894 -44.821361 159.971857
971 98 4 0 84.060966 -244.283435 155.734093
972 98 6 0 92.331811 -239.543806 158.755520
973 98 6 0 100.602657 -234.804176 161.776948
974 98 5 0 108.873503 -230.064547 164.798375
975 98 6 0 117.144348 -225.324917 167.819803
976 98 6 0 125.415194 -220.585288 170.841230
977 98 5 0 133.686040 -215.845658 173.862657
978 98 6 0 141.956886 -211.106029 176.884085
979 98 6 0 150.227731 -206.366399 179.905512
980 98 5 0 158.498577 -201.626770 182.926940
981 99 4 0 -160.905122 -189.383269 179.910382
982 99 6 0 -170.145816 -187.676785 176.490224
983 99 6 0 -179.386510 -185.970301 173.070065
984 99 5 0 -188.627204 -184.263817 169.649907
985 99 6 0 -197.867899 -182.557333 166.229749
986 99 6 0 -207.108593 -180.850849 162.809591
987 99 5 0 -216.349287 -179.144365 159.389433
988 99 6 0 -225.589982 -177.437881 155.969275
989 99 6 0 -234.830676 -175.731397 152.549117
990 99 5 0 -244.071370 -174.024913 149.128959
991 100 4 0 87.883709 28.932795 171.180311
992 100 6 0 81.381087 25.966983 164.186038
993 100 6 0 74.878465 23.001171 157.191764
994 100 5 0 68.375843 20.035360 150.197490
995 100 6 0 61.873221 17.069548 143.203217
996 100 6 0 55.370598 14.103736 136.208943
997 100 5 0 48.867976 11.137924 129.214669
998 100 6 0 42.365354 8.172112 122.220395
999 100 6 0 35.862732 5.206301 115.226122
1000 100 5 0 29.360110 2.240489 108.231848
1001 101 4 0 88.691450 -256.026684 126.566288
1002 101 6 0 90.415681 -246.177896 126.397756
1003 101 6 0 92.139912 -236.329108 126.229225
1004 101 5 0 93.864142 -226.480320 126.060693
1005 101 6 0 95.588373 -216.631532 125.892161
1006 101 6 0 97.312604 -206.782744 125.723629
1007 101 5 0 99.036835 -196.933956 125.555098
1008 101 6 0 100.761065 -187.085168 125.386566
1009 101 6 0 102.485296 -177.236380 125.218034
1010 101 5 0 104.209527 -167.387592 125.049502
1011 102 4 0 153.551001 -10.148634 198.510538
1012 102 6 0 156.587231 -7.932567 189.243912
1013 102 6 0 159.623461 -5.716501 179.977286
1014 102 5 0 162.659690 -3.500434 170.710660
1015 102 6 0 165.695920 -1.284368 161.444034
1016 102 6 0 168.732150 0.931699 152.177408
1017 102 5 0 171.768380 3.147765 142.910782
1018 102 6 0 174.804610 5.363832 133.644156
1019 102 6 0 177.840840 7.579898 124.377529
1020 102 5 0 180.877069 9.795965 115.110903
1021 103 4 0 -20.024553 154.466249 186.303759
1022 103 6 0 -12.049019 148.441754 185.993407
1023 103 6 0 -4.073485 142.417258 185.683055
1024 103 5 0 3.902048 136.392763 185.372703
1025 103 6 0 11.877582 130.368268 185.062351
1026 103 6 0 19.853116 124.343773 184.751999
1027 103 5 0 27.828650 118.319278 184.441647
1028 103 6 0 35.804184 112.294783 184.131295
1029 103 6 0 43.779717 106.270287 183.820943
1030 103 5 0 51.755251 100.245792 183.510591
1031 104 4 0 -155.233819 -12.558181 232.246768
1032 104 6 0 -151.599729 -3.932117 228.727618
1033 104 6 0 -147.965639 4.693947 225.208468
1034 104 5 0 -144.331549 13.320010 221.689319
1035 104 6 0 -140.697459 21.946074 218.170169
1036 104 6 0 -137.063369 30.572138 214.651019
1037 104 5 0 -133.429279 39.198201 211.131869
1038 104 6 0 -129.795190 47.824265 207.612719
1039 104 6 0 -126.161100 56.450329 204.093569
1040 104 5 0 -122.527010 65.076393 200.574419
1041 105 4 0 10.173896 128.486067 105.673584
1042 105 6 0 12.616397 118.797108 105.275759
1043 105 6 0 15.058897 109.108149 104.877934
1044 105 5 0 17.501398 99.419190 104.480108
1045 105 6 0 19.943899 89.730231 104.082283
1046 105 6 0 22.386399 80.041272 103.684457
1047 105 5 0 24.828900 70.352313 103.286632
1048 105 6 0 27.271401 60.663354 102.888807
1049 105 6 0 29.713901 50.974395 102.490981
1050 105 5 0 32.156402 41.285436 102.093156
1051 106 4 0 284.777122 -1.931161 105.869350
1052 106 6 0 274.929972 -3.471501 105.056340
1053 106 6 0 265.082822 -5.011842 104.243330
1054 106 5 0 255.235672 -6.552183 103.430320
1055 106 6 0 245.388522 -8.092523 102.617311
1056 106 6 0 235.541372 -9.632864 101.804301
1057 106 5 0 225.694222 -11.173205 100.991291
1058 106 6 0 215.847072 -12.713545 100.178281
1059 106 6 0 205.999921 -14.253886 99.365271
1060 106 5 0 196.152771 -15.794227 98.552261
1061 107 4 0 170.184952 141.654392 262.133807
1062 107 6 0 174.277078 132.559413 261.401774
1063 107 6 0 178.369204 123.464435 260.669741
1064 107 5 0 182.461330 114.369456 259.937709
1065 107 6 0 186.553456 105.274478 259.205676
1066 107 6 0 190.645582 96.179500 258.473643
1067 107 5 0 194.737708 87.084521 257.741611
1068 107 6 0 198.829834 77.989543 257.009578
1069 107 6 0 202.921960 68.894564 256.277545
1070 107 5 0 207.014086 59.799586 255.545513
1071 108 4 0 208.458107 109.421281 153.040420
1072 108 6 0 212.042599 118.247107 149.998016
1073 108 6 0 215.627091 127.072933 146.955613