LAMMPS Description

5660  atoms
5160  bonds
4660  angles
0  dihedrals
0  impropers

11  atom types
4  bond types
4  angle types
0  dihedral types
0  improper types

-250 250 xlo xhi
-250 250 ylo yhi
0 300 zlo zhi

Masses

1 1000  # Anchor
2 450  # NephL
3 450  # pY
4 11000  # SH2
5 7000  # SH3
6 450  # nckL
7 450  # PRM
8 450  # nwL
9 450  # VCA
10 450  # Arp
11 20000  # arpL

Atoms

1 1 1 0 -125 -29 5
2 1 2 0 -125 -29 15
3 1 2 0 -125 -29 25
4 1 3 0 -125 -29 35
5 1 2 0 -125 -29 45
6 1 2 0 -125 -29 55
7 1 3 0 -125 -29 65
8 1 2 0 -125 -29 75
9 1 2 0 -125 -29 85
10 1 3 0 -125 -29 95
11 2 1 0 -105 -23 5
12 2 2 0 -105 -23 15
13 2 2 0 -105 -23 25
14 2 3 0 -105 -23 35
15 2 2 0 -105 -23 45
16 2 2 0 -105 -23 55
17 2 3 0 -105 -23 65
18 2 2 0 -105 -23 75
19 2 2 0 -105 -23 85
20 2 3 0 -105 -23 95
21 3 1 0 61 -180 5
22 3 2 0 61 -180 15
23 3 2 0 61 -180 25
24 3 3 0 61 -180 35
25 3 2 0 61 -180 45
26 3 2 0 61 -180 55
27 3 3 0 61 -180 65
28 3 2 0 61 -180 75
29 3 2 0 61 -180 85
30 3 3 0 61 -180 95
31 4 1 0 -134 104 5
32 4 2 0 -134 104 15
33 4 2 0 -134 104 25
34 4 3 0 -134 104 35
35 4 2 0 -134 104 45
36 4 2 0 -134 104 55
37 4 3 0 -134 104 65
38 4 2 0 -134 104 75
39 4 2 0 -134 104 85
40 4 3 0 -134 104 95
41 5 1 0 -40 -30 5
42 5 2 0 -40 -30 15
43 5 2 0 -40 -30 25
44 5 3 0 -40 -30 35
45 5 2 0 -40 -30 45
46 5 2 0 -40 -30 55
47 5 3 0 -40 -30 65
48 5 2 0 -40 -30 75
49 5 2 0 -40 -30 85
50 5 3 0 -40 -30 95
51 6 1 0 79 -124 5
52 6 2 0 79 -124 15
53 6 2 0 79 -124 25
54 6 3 0 79 -124 35
55 6 2 0 79 -124 45
56 6 2 0 79 -124 55
57 6 3 0 79 -124 65
58 6 2 0 79 -124 75
59 6 2 0 79 -124 85
60 6 3 0 79 -124 95
61 7 1 0 -76 202 5
62 7 2 0 -76 202 15
63 7 2 0 -76 202 25
64 7 3 0 -76 202 35
65 7 2 0 -76 202 45
66 7 2 0 -76 202 55
67 7 3 0 -76 202 65
68 7 2 0 -76 202 75
69 7 2 0 -76 202 85
70 7 3 0 -76 202 95
71 8 1 0 -9 24 5
72 8 2 0 -9 24 15
73 8 2 0 -9 24 25
74 8 3 0 -9 24 35
75 8 2 0 -9 24 45
76 8 2 0 -9 24 55
77 8 3 0 -9 24 65
78 8 2 0 -9 24 75
79 8 2 0 -9 24 85
80 8 3 0 -9 24 95
81 9 1 0 -69 20 5
82 9 2 0 -69 20 15
83 9 2 0 -69 20 25
84 9 3 0 -69 20 35
85 9 2 0 -69 20 45
86 9 2 0 -69 20 55
87 9 3 0 -69 20 65
88 9 2 0 -69 20 75
89 9 2 0 -69 20 85
90 9 3 0 -69 20 95
91 10 1 0 -31 40 5
92 10 2 0 -31 40 15
93 10 2 0 -31 40 25
94 10 3 0 -31 40 35
95 10 2 0 -31 40 45
96 10 2 0 -31 40 55
97 10 3 0 -31 40 65
98 10 2 0 -31 40 75
99 10 2 0 -31 40 85
100 10 3 0 -31 40 95
101 11 1 0 225 -168 5
102 11 2 0 225 -168 15
103 11 2 0 225 -168 25
104 11 3 0 225 -168 35
105 11 2 0 225 -168 45
106 11 2 0 225 -168 55
107 11 3 0 225 -168 65
108 11 2 0 225 -168 75
109 11 2 0 225 -168 85
110 11 3 0 225 -168 95
111 12 1 0 -81 90 5
112 12 2 0 -81 90 15
113 12 2 0 -81 90 25
114 12 3 0 -81 90 35
115 12 2 0 -81 90 45
116 12 2 0 -81 90 55
117 12 3 0 -81 90 65
118 12 2 0 -81 90 75
119 12 2 0 -81 90 85
120 12 3 0 -81 90 95
121 13 1 0 17 81 5
122 13 2 0 17 81 15
123 13 2 0 17 81 25
124 13 3 0 17 81 35
125 13 2 0 17 81 45
126 13 2 0 17 81 55
127 13 3 0 17 81 65
128 13 2 0 17 81 75
129 13 2 0 17 81 85
130 13 3 0 17 81 95
131 14 1 0 179 -184 5
132 14 2 0 179 -184 15
133 14 2 0 179 -184 25
134 14 3 0 179 -184 35
135 14 2 0 179 -184 45
136 14 2 0 179 -184 55
137 14 3 0 179 -184 65
138 14 2 0 179 -184 75
139 14 2 0 179 -184 85
140 14 3 0 179 -184 95
141 15 1 0 164 23 5
142 15 2 0 164 23 15
143 15 2 0 164 23 25
144 15 3 0 164 23 35
145 15 2 0 164 23 45
146 15 2 0 164 23 55
147 15 3 0 164 23 65
148 15 2 0 164 23 75
149 15 2 0 164 23 85
150 15 3 0 164 23 95
151 16 1 0 -178 -83 5
152 16 2 0 -178 -83 15
153 16 2 0 -178 -83 25
154 16 3 0 -178 -83 35
155 16 2 0 -178 -83 45
156 16 2 0 -178 -83 55
157 16 3 0 -178 -83 65
158 16 2 0 -178 -83 75
159 16 2 0 -178 -83 85
160 16 3 0 -178 -83 95
161 17 1 0 -214 -122 5
162 17 2 0 -214 -122 15
163 17 2 0 -214 -122 25
164 17 3 0 -214 -122 35
165 17 2 0 -214 -122 45
166 17 2 0 -214 -122 55
167 17 3 0 -214 -122 65
168 17 2 0 -214 -122 75
169 17 2 0 -214 -122 85
170 17 3 0 -214 -122 95
171 18 1 0 206 -6 5
172 18 2 0 206 -6 15
173 18 2 0 206 -6 25
174 18 3 0 206 -6 35
175 18 2 0 206 -6 45
176 18 2 0 206 -6 55
177 18 3 0 206 -6 65
178 18 2 0 206 -6 75
179 18 2 0 206 -6 85
180 18 3 0 206 -6 95
181 19 1 0 -3 62 5
182 19 2 0 -3 62 15
183 19 2 0 -3 62 25
184 19 3 0 -3 62 35
185 19 2 0 -3 62 45
186 19 2 0 -3 62 55
187 19 3 0 -3 62 65
188 19 2 0 -3 62 75
189 19 2 0 -3 62 85
190 19 3 0 -3 62 95
191 20 1 0 -120 -125 5
192 20 2 0 -120 -125 15
193 20 2 0 -120 -125 25
194 20 3 0 -120 -125 35
195 20 2 0 -120 -125 45
196 20 2 0 -120 -125 55
197 20 3 0 -120 -125 65
198 20 2 0 -120 -125 75
199 20 2 0 -120 -125 85
200 20 3 0 -120 -125 95
201 21 1 0 76 -221 5
202 21 2 0 76 -221 15
203 21 2 0 76 -221 25
204 21 3 0 76 -221 35
205 21 2 0 76 -221 45
206 21 2 0 76 -221 55
207 21 3 0 76 -221 65
208 21 2 0 76 -221 75
209 21 2 0 76 -221 85
210 21 3 0 76 -221 95
211 22 1 0 117 212 5
212 22 2 0 117 212 15
213 22 2 0 117 212 25
214 22 3 0 117 212 35
215 22 2 0 117 212 45
216 22 2 0 117 212 55
217 22 3 0 117 212 65
218 22 2 0 117 212 75
219 22 2 0 117 212 85
220 22 3 0 117 212 95
221 23 1 0 43 -121 5
222 23 2 0 43 -121 15
223 23 2 0 43 -121 25
224 23 3 0 43 -121 35
225 23 2 0 43 -121 45
226 23 2 0 43 -121 55
227 23 3 0 43 -121 65
228 23 2 0 43 -121 75
229 23 2 0 43 -121 85
230 23 3 0 43 -121 95
231 24 1 0 199 -115 5
232 24 2 0 199 -115 15
233 24 2 0 199 -115 25
234 24 3 0 199 -115 35
235 24 2 0 199 -115 45
236 24 2 0 199 -115 55
237 24 3 0 199 -115 65
238 24 2 0 199 -115 75
239 24 2 0 199 -115 85
240 24 3 0 199 -115 95
241 25 1 0 -159 -155 5
242 25 2 0 -159 -155 15
243 25 2 0 -159 -155 25
244 25 3 0 -159 -155 35
245 25 2 0 -159 -155 45
246 25 2 0 -159 -155 55
247 25 3 0 -159 -155 65
248 25 2 0 -159 -155 75
249 25 2 0 -159 -155 85
250 25 3 0 -159 -155 95
251 26 1 0 -112 -41 5
252 26 2 0 -112 -41 15
253 26 2 0 -112 -41 25
254 26 3 0 -112 -41 35
255 26 2 0 -112 -41 45
256 26 2 0 -112 -41 55
257 26 3 0 -112 -41 65
258 26 2 0 -112 -41 75
259 26 2 0 -112 -41 85
260 26 3 0 -112 -41 95
261 27 1 0 -130 146 5
262 27 2 0 -130 146 15
263 27 2 0 -130 146 25
264 27 3 0 -130 146 35
265 27 2 0 -130 146 45
266 27 2 0 -130 146 55
267 27 3 0 -130 146 65
268 27 2 0 -130 146 75
269 27 2 0 -130 146 85
270 27 3 0 -130 146 95
271 28 1 0 192 135 5
272 28 2 0 192 135 15
273 28 2 0 192 135 25
274 28 3 0 192 135 35
275 28 2 0 192 135 45
276 28 2 0 192 135 55
277 28 3 0 192 135 65
278 28 2 0 192 135 75
279 28 2 0 192 135 85
280 28 3 0 192 135 95
281 29 1 0 -26 -190 5
282 29 2 0 -26 -190 15
283 29 2 0 -26 -190 25
284 29 3 0 -26 -190 35
285 29 2 0 -26 -190 45
286 29 2 0 -26 -190 55
287 29 3 0 -26 -190 65
288 29 2 0 -26 -190 75
289 29 2 0 -26 -190 85
290 29 3 0 -26 -190 95
291 30 1 0 136 29 5
292 30 2 0 136 29 15
293 30 2 0 136 29 25
294 30 3 0 136 29 35
295 30 2 0 136 29 45
296 30 2 0 136 29 55
297 30 3 0 136 29 65
298 30 2 0 136 29 75
299 30 2 0 136 29 85
300 30 3 0 136 29 95
301 31 1 0 -13 184 5
302 31 2 0 -13 184 15
303 31 2 0 -13 184 25
304 31 3 0 -13 184 35
305 31 2 0 -13 184 45
306 31 2 0 -13 184 55
307 31 3 0 -13 184 65
308 31 2 0 -13 184 75
309 31 2 0 -13 184 85
310 31 3 0 -13 184 95
311 32 1 0 185 -21 5
312 32 2 0 185 -21 15
313 32 2 0 185 -21 25
314 32 3 0 185 -21 35
315 32 2 0 185 -21 45
316 32 2 0 185 -21 55
317 32 3 0 185 -21 65
318 32 2 0 185 -21 75
319 32 2 0 185 -21 85
320 32 3 0 185 -21 95
321 33 1 0 -15 83 5
322 33 2 0 -15 83 15
323 33 2 0 -15 83 25
324 33 3 0 -15 83 35
325 33 2 0 -15 83 45
326 33 2 0 -15 83 55
327 33 3 0 -15 83 65
328 33 2 0 -15 83 75
329 33 2 0 -15 83 85
330 33 3 0 -15 83 95
331 34 1 0 -51 109 5
332 34 2 0 -51 109 15
333 34 2 0 -51 109 25
334 34 3 0 -51 109 35
335 34 2 0 -51 109 45
336 34 2 0 -51 109 55
337 34 3 0 -51 109 65
338 34 2 0 -51 109 75
339 34 2 0 -51 109 85
340 34 3 0 -51 109 95
341 35 1 0 -121 -37 5
342 35 2 0 -121 -37 15
343 35 2 0 -121 -37 25
344 35 3 0 -121 -37 35
345 35 2 0 -121 -37 45
346 35 2 0 -121 -37 55
347 35 3 0 -121 -37 65
348 35 2 0 -121 -37 75
349 35 2 0 -121 -37 85
350 35 3 0 -121 -37 95
351 36 1 0 -37 34 5
352 36 2 0 -37 34 15
353 36 2 0 -37 34 25
354 36 3 0 -37 34 35
355 36 2 0 -37 34 45
356 36 2 0 -37 34 55
357 36 3 0 -37 34 65
358 36 2 0 -37 34 75
359 36 2 0 -37 34 85
360 36 3 0 -37 34 95
361 37 1 0 162 84 5
362 37 2 0 162 84 15
363 37 2 0 162 84 25
364 37 3 0 162 84 35
365 37 2 0 162 84 45
366 37 2 0 162 84 55
367 37 3 0 162 84 65
368 37 2 0 162 84 75
369 37 2 0 162 84 85
370 37 3 0 162 84 95
371 38 1 0 -185 -24 5
372 38 2 0 -185 -24 15
373 38 2 0 -185 -24 25
374 38 3 0 -185 -24 35
375 38 2 0 -185 -24 45
376 38 2 0 -185 -24 55
377 38 3 0 -185 -24 65
378 38 2 0 -185 -24 75
379 38 2 0 -185 -24 85
380 38 3 0 -185 -24 95
381 39 1 0 229 126 5
382 39 2 0 229 126 15
383 39 2 0 229 126 25
384 39 3 0 229 126 35
385 39 2 0 229 126 45
386 39 2 0 229 126 55
387 39 3 0 229 126 65
388 39 2 0 229 126 75
389 39 2 0 229 126 85
390 39 3 0 229 126 95
391 40 1 0 88 106 5
392 40 2 0 88 106 15
393 40 2 0 88 106 25
394 40 3 0 88 106 35
395 40 2 0 88 106 45
396 40 2 0 88 106 55
397 40 3 0 88 106 65
398 40 2 0 88 106 75
399 40 2 0 88 106 85
400 40 3 0 88 106 95
401 41 1 0 -113 38 5
402 41 2 0 -113 38 15
403 41 2 0 -113 38 25
404 41 3 0 -113 38 35
405 41 2 0 -113 38 45
406 41 2 0 -113 38 55
407 41 3 0 -113 38 65
408 41 2 0 -113 38 75
409 41 2 0 -113 38 85
410 41 3 0 -113 38 95
411 42 1 0 -166 -109 5
412 42 2 0 -166 -109 15
413 42 2 0 -166 -109 25
414 42 3 0 -166 -109 35
415 42 2 0 -166 -109 45
416 42 2 0 -166 -109 55
417 42 3 0 -166 -109 65
418 42 2 0 -166 -109 75
419 42 2 0 -166 -109 85
420 42 3 0 -166 -109 95
421 43 1 0 53 -223 5
422 43 2 0 53 -223 15
423 43 2 0 53 -223 25
424 43 3 0 53 -223 35
425 43 2 0 53 -223 45
426 43 2 0 53 -223 55
427 43 3 0 53 -223 65
428 43 2 0 53 -223 75
429 43 2 0 53 -223 85
430 43 3 0 53 -223 95
431 44 1 0 -183 -85 5
432 44 2 0 -183 -85 15
433 44 2 0 -183 -85 25
434 44 3 0 -183 -85 35
435 44 2 0 -183 -85 45
436 44 2 0 -183 -85 55
437 44 3 0 -183 -85 65
438 44 2 0 -183 -85 75
439 44 2 0 -183 -85 85
440 44 3 0 -183 -85 95
441 45 1 0 -205 33 5
442 45 2 0 -205 33 15
443 45 2 0 -205 33 25
444 45 3 0 -205 33 35
445 45 2 0 -205 33 45
446 45 2 0 -205 33 55
447 45 3 0 -205 33 65
448 45 2 0 -205 33 75
449 45 2 0 -205 33 85
450 45 3 0 -205 33 95
451 46 1 0 -157 207 5
452 46 2 0 -157 207 15
453 46 2 0 -157 207 25
454 46 3 0 -157 207 35
455 46 2 0 -157 207 45
456 46 2 0 -157 207 55
457 46 3 0 -157 207 65
458 46 2 0 -157 207 75
459 46 2 0 -157 207 85
460 46 3 0 -157 207 95
461 47 1 0 -36 -73 5
462 47 2 0 -36 -73 15
463 47 2 0 -36 -73 25
464 47 3 0 -36 -73 35
465 47 2 0 -36 -73 45
466 47 2 0 -36 -73 55
467 47 3 0 -36 -73 65
468 47 2 0 -36 -73 75
469 47 2 0 -36 -73 85
470 47 3 0 -36 -73 95
471 48 1 0 -167 -200 5
472 48 2 0 -167 -200 15
473 48 2 0 -167 -200 25
474 48 3 0 -167 -200 35
475 48 2 0 -167 -200 45
476 48 2 0 -167 -200 55
477 48 3 0 -167 -200 65
478 48 2 0 -167 -200 75
479 48 2 0 -167 -200 85
480 48 3 0 -167 -200 95
481 49 1 0 -95 -113 5
482 49 2 0 -95 -113 15
483 49 2 0 -95 -113 25
484 49 3 0 -95 -113 35
485 49 2 0 -95 -113 45
486 49 2 0 -95 -113 55
487 49 3 0 -95 -113 65
488 49 2 0 -95 -113 75
489 49 2 0 -95 -113 85
490 49 3 0 -95 -113 95
491 50 1 0 -133 211 5
492 50 2 0 -133 211 15
493 50 2 0 -133 211 25
494 50 3 0 -133 211 35
495 50 2 0 -133 211 45
496 50 2 0 -133 211 55
497 50 3 0 -133 211 65
498 50 2 0 -133 211 75
499 50 2 0 -133 211 85
500 50 3 0 -133 211 95
501 51 1 0 42 53 5
502 51 2 0 42 53 15
503 51 2 0 42 53 25
504 51 3 0 42 53 35
505 51 2 0 42 53 45
506 51 2 0 42 53 55
507 51 3 0 42 53 65
508 51 2 0 42 53 75
509 51 2 0 42 53 85
510 51 3 0 42 53 95
511 52 1 0 146 -171 5
512 52 2 0 146 -171 15
513 52 2 0 146 -171 25
514 52 3 0 146 -171 35
515 52 2 0 146 -171 45
516 52 2 0 146 -171 55
517 52 3 0 146 -171 65
518 52 2 0 146 -171 75
519 52 2 0 146 -171 85
520 52 3 0 146 -171 95
521 53 1 0 -4 21 5
522 53 2 0 -4 21 15
523 53 2 0 -4 21 25
524 53 3 0 -4 21 35
525 53 2 0 -4 21 45
526 53 2 0 -4 21 55
527 53 3 0 -4 21 65
528 53 2 0 -4 21 75
529 53 2 0 -4 21 85
530 53 3 0 -4 21 95
531 54 1 0 140 73 5
532 54 2 0 140 73 15
533 54 2 0 140 73 25
534 54 3 0 140 73 35
535 54 2 0 140 73 45
536 54 2 0 140 73 55
537 54 3 0 140 73 65
538 54 2 0 140 73 75
539 54 2 0 140 73 85
540 54 3 0 140 73 95
541 55 1 0 -60 -189 5
542 55 2 0 -60 -189 15
543 55 2 0 -60 -189 25
544 55 3 0 -60 -189 35
545 55 2 0 -60 -189 45
546 55 2 0 -60 -189 55
547 55 3 0 -60 -189 65
548 55 2 0 -60 -189 75
549 55 2 0 -60 -189 85
550 55 3 0 -60 -189 95
551 56 1 0 -146 -59 5
552 56 2 0 -146 -59 15
553 56 2 0 -146 -59 25
554 56 3 0 -146 -59 35
555 56 2 0 -146 -59 45
556 56 2 0 -146 -59 55
557 56 3 0 -146 -59 65
558 56 2 0 -146 -59 75
559 56 2 0 -146 -59 85
560 56 3 0 -146 -59 95
561 57 1 0 45 107 5
562 57 2 0 45 107 15
563 57 2 0 45 107 25
564 57 3 0 45 107 35
565 57 2 0 45 107 45
566 57 2 0 45 107 55
567 57 3 0 45 107 65
568 57 2 0 45 107 75
569 57 2 0 45 107 85
570 57 3 0 45 107 95
571 58 1 0 -34 36 5
572 58 2 0 -34 36 15
573 58 2 0 -34 36 25
574 58 3 0 -34 36 35
575 58 2 0 -34 36 45
576 58 2 0 -34 36 55
577 58 3 0 -34 36 65
578 58 2 0 -34 36 75
579 58 2 0 -34 36 85
580 58 3 0 -34 36 95
581 59 1 0 -222 -55 5
582 59 2 0 -222 -55 15
583 59 2 0 -222 -55 25
584 59 3 0 -222 -55 35
585 59 2 0 -222 -55 45
586 59 2 0 -222 -55 55
587 59 3 0 -222 -55 65
588 59 2 0 -222 -55 75
589 59 2 0 -222 -55 85
590 59 3 0 -222 -55 95
591 60 1 0 86 -81 5
592 60 2 0 86 -81 15
593 60 2 0 86 -81 25
594 60 3 0 86 -81 35
595 60 2 0 86 -81 45
596 60 2 0 86 -81 55
597 60 3 0 86 -81 65
598 60 2 0 86 -81 75
599 60 2 0 86 -81 85
600 60 3 0 86 -81 95
601 61 1 0 151 -53 5
602 61 2 0 151 -53 15
603 61 2 0 151 -53 25
604 61 3 0 151 -53 35
605 61 2 0 151 -53 45
606 61 2 0 151 -53 55
607 61 3 0 151 -53 65
608 61 2 0 151 -53 75
609 61 2 0 151 -53 85
610 61 3 0 151 -53 95
611 62 1 0 120 186 5
612 62 2 0 120 186 15
613 62 2 0 120 186 25
614 62 3 0 120 186 35
615 62 2 0 120 186 45
616 62 2 0 120 186 55
617 62 3 0 120 186 65
618 62 2 0 120 186 75
619 62 2 0 120 186 85
620 62 3 0 120 186 95
621 63 1 0 -102 -16 5
622 63 2 0 -102 -16 15
623 63 2 0 -102 -16 25
624 63 3 0 -102 -16 35
625 63 2 0 -102 -16 45
626 63 2 0 -102 -16 55
627 63 3 0 -102 -16 65
628 63 2 0 -102 -16 75
629 63 2 0 -102 -16 85
630 63 3 0 -102 -16 95
631 64 1 0 124 -96 5
632 64 2 0 124 -96 15
633 64 2 0 124 -96 25
634 64 3 0 124 -96 35
635 64 2 0 124 -96 45
636 64 2 0 124 -96 55
637 64 3 0 124 -96 65
638 64 2 0 124 -96 75
639 64 2 0 124 -96 85
640 64 3 0 124 -96 95
641 65 1 0 101 226 5
642 65 2 0 101 226 15
643 65 2 0 101 226 25
644 65 3 0 101 226 35
645 65 2 0 101 226 45
646 65 2 0 101 226 55
647 65 3 0 101 226 65
648 65 2 0 101 226 75
649 65 2 0 101 226 85
650 65 3 0 101 226 95
651 66 1 0 150 11 5
652 66 2 0 150 11 15
653 66 2 0 150 11 25
654 66 3 0 150 11 35
655 66 2 0 150 11 45
656 66 2 0 150 11 55
657 66 3 0 150 11 65
658 66 2 0 150 11 75
659 66 2 0 150 11 85
660 66 3 0 150 11 95
661 67 1 0 81 -144 5
662 67 2 0 81 -144 15
663 67 2 0 81 -144 25
664 67 3 0 81 -144 35
665 67 2 0 81 -144 45
666 67 2 0 81 -144 55
667 67 3 0 81 -144 65
668 67 2 0 81 -144 75
669 67 2 0 81 -144 85
670 67 3 0 81 -144 95
671 68 1 0 98 74 5
672 68 2 0 98 74 15
673 68 2 0 98 74 25
674 68 3 0 98 74 35
675 68 2 0 98 74 45
676 68 2 0 98 74 55
677 68 3 0 98 74 65
678 68 2 0 98 74 75
679 68 2 0 98 74 85
680 68 3 0 98 74 95
681 69 1 0 -216 181 5
682 69 2 0 -216 181 15
683 69 2 0 -216 181 25
684 69 3 0 -216 181 35
685 69 2 0 -216 181 45
686 69 2 0 -216 181 55
687 69 3 0 -216 181 65
688 69 2 0 -216 181 75
689 69 2 0 -216 181 85
690 69 3 0 -216 181 95
691 70 1 0 -1 69 5
692 70 2 0 -1 69 15
693 70 2 0 -1 69 25
694 70 3 0 -1 69 35
695 70 2 0 -1 69 45
696 70 2 0 -1 69 55
697 70 3 0 -1 69 65
698 70 2 0 -1 69 75
699 70 2 0 -1 69 85
700 70 3 0 -1 69 95
701 71 1 0 62 108 5
702 71 2 0 62 108 15
703 71 2 0 62 108 25
704 71 3 0 62 108 35
705 71 2 0 62 108 45
706 71 2 0 62 108 55
707 71 3 0 62 108 65
708 71 2 0 62 108 75
709 71 2 0 62 108 85
710 71 3 0 62 108 95
711 72 1 0 -123 -157 5
712 72 2 0 -123 -157 15
713 72 2 0 -123 -157 25
714 72 3 0 -123 -157 35
715 72 2 0 -123 -157 45
716 72 2 0 -123 -157 55
717 72 3 0 -123 -157 65
718 72 2 0 -123 -157 75
719 72 2 0 -123 -157 85
720 72 3 0 -123 -157 95
721 73 1 0 69 61 5
722 73 2 0 69 61 15
723 73 2 0 69 61 25
724 73 3 0 69 61 35
725 73 2 0 69 61 45
726 73 2 0 69 61 55
727 73 3 0 69 61 65
728 73 2 0 69 61 75
729 73 2 0 69 61 85
730 73 3 0 69 61 95
731 74 1 0 35 168 5
732 74 2 0 35 168 15
733 74 2 0 35 168 25
734 74 3 0 35 168 35
735 74 2 0 35 168 45
736 74 2 0 35 168 55
737 74 3 0 35 168 65
738 74 2 0 35 168 75
739 74 2 0 35 168 85
740 74 3 0 35 168 95
741 75 1 0 127 204 5
742 75 2 0 127 204 15
743 75 2 0 127 204 25
744 75 3 0 127 204 35
745 75 2 0 127 204 45
746 75 2 0 127 204 55
747 75 3 0 127 204 65
748 75 2 0 127 204 75
749 75 2 0 127 204 85
750 75 3 0 127 204 95
751 76 1 0 110 72 5
752 76 2 0 110 72 15
753 76 2 0 110 72 25
754 76 3 0 110 72 35
755 76 2 0 110 72 45
756 76 2 0 110 72 55
757 76 3 0 110 72 65
758 76 2 0 110 72 75
759 76 2 0 110 72 85
760 76 3 0 110 72 95
761 77 1 0 -27 -93 5
762 77 2 0 -27 -93 15
763 77 2 0 -27 -93 25
764 77 3 0 -27 -93 35
765 77 2 0 -27 -93 45
766 77 2 0 -27 -93 55
767 77 3 0 -27 -93 65
768 77 2 0 -27 -93 75
769 77 2 0 -27 -93 85
770 77 3 0 -27 -93 95
771 78 1 0 -10 -102 5
772 78 2 0 -10 -102 15
773 78 2 0 -10 -102 25
774 78 3 0 -10 -102 35
775 78 2 0 -10 -102 45
776 78 2 0 -10 -102 55
777 78 3 0 -10 -102 65
778 78 2 0 -10 -102 75
779 78 2 0 -10 -102 85
780 78 3 0 -10 -102 95
781 79 1 0 80 -47 5
782 79 2 0 80 -47 15
783 79 2 0 80 -47 25
784 79 3 0 80 -47 35
785 79 2 0 80 -47 45
786 79 2 0 80 -47 55
787 79 3 0 80 -47 65
788 79 2 0 80 -47 75
789 79 2 0 80 -47 85
790 79 3 0 80 -47 95
791 80 1 0 -187 1 5
792 80 2 0 -187 1 15
793 80 2 0 -187 1 25
794 80 3 0 -187 1 35
795 80 2 0 -187 1 45
796 80 2 0 -187 1 55
797 80 3 0 -187 1 65
798 80 2 0 -187 1 75
799 80 2 0 -187 1 85
800 80 3 0 -187 1 95
801 81 4 0 161.221688 -76.343474 236.125455
802 81 6 0 160.461333 -76.798922 231.204640
803 81 6 0 159.700978 -77.254370 226.283824
804 81 5 0 158.940623 -77.709818 221.363008
805 81 6 0 158.180268 -78.165266 216.442192
806 81 6 0 157.419913 -78.620713 211.521377
807 81 5 0 156.659558 -79.076161 206.600561
808 81 6 0 155.899203 -79.531609 201.679745
809 81 6 0 155.138848 -79.987057 196.758929
810 81 5 0 154.378493 -80.442505 191.838114
811 82 4 0 89.475906 -45.055969 187.883286
812 82 6 0 90.209683 -42.713553 183.527295
813 82 6 0 90.943459 -40.371137 179.171304
814 82 5 0 91.677236 -38.028721 174.815313
815 82 6 0 92.411012 -35.686305 170.459321
816 82 6 0 93.144789 -33.343889 166.103330
817 82 5 0 93.878565 -31.001473 161.747339
818 82 6 0 94.612342 -28.659057 157.391348
819 82 6 0 95.346118 -26.316641 153.035357
820 82 5 0 96.079895 -23.974225 148.679365
821 83 4 0 -70.269161 -99.734273 205.770111
822 83 6 0 -74.105540 -96.795761 204.486623
823 83 6 0 -77.941919 -93.857249 203.203135
824 83 5 0 -81.778299 -90.918737 201.919647
825 83 6 0 -85.614678 -87.980225 200.636159
826 83 6 0 -89.451057 -85.041714 199.352671
827 83 5 0 -93.287437 -82.103202 198.069184
828 83 6 0 -97.123816 -79.164690 196.785696
829 83 6 0 -100.960195 -76.226178 195.502208
830 83 5 0 -104.796575 -73.287666 194.218720
831 84 4 0 -121.334877 112.000949 270.529682
832 84 6 0 -118.092507 108.990986 268.200055
833 84 6 0 -114.850137 105.981023 265.870428
834 84 5 0 -111.607767 102.971061 263.540801
835 84 6 0 -108.365398 99.961098 261.211173
836 84 6 0 -105.123028 96.951135 258.881546
837 84 5 0 -101.880658 93.941172 256.551919
838 84 6 0 -98.638288 90.931210 254.222292
839 84 6 0 -95.395919 87.921247 251.892665
840 84 5 0 -92.153549 84.911284 249.563038
841 85 4 0 -7.577987 -128.602188 262.876506
842 85 6 0 -7.906372 -124.622683 265.885775
843 85 6 0 -8.234758 -120.643177 268.895044
844 85 5 0 -8.563143 -116.663672 271.904313
845 85 6 0 -8.891529 -112.684167 274.913582
846 85 6 0 -9.219914 -108.704661 277.922852
847 85 5 0 -9.548300 -104.725156 280.932121
848 85 6 0 -9.876685 -100.745651 283.941390
849 85 6 0 -10.205071 -96.766146 286.950659
850 85 5 0 -10.533456 -92.786640 289.959928
851 86 4 0 -47.812067 -145.103626 154.037410
852 86 6 0 -48.500678 -140.315808 152.771465
853 86 6 0 -49.189288 -135.527991 151.505519
854 86 5 0 -49.877899 -130.740173 150.239574
855 86 6 0 -50.566510 -125.952356 148.973628
856 86 6 0 -51.255120 -121.164538 147.707683
857 86 5 0 -51.943731 -116.376720 146.441738
858 86 6 0 -52.632341 -111.588903 145.175792
859 86 6 0 -53.320952 -106.801085 143.909847
860 86 5 0 -54.009562 -102.013267 142.643901
861 87 4 0 -134.777499 -50.572337 211.341482
862 87 6 0 -137.997422 -46.952643 210.104585
863 87 6 0 -141.217344 -43.332950 208.867687
864 87 5 0 -144.437267 -39.713256 207.630789
865 87 6 0 -147.657189 -36.093562 206.393891
866 87 6 0 -150.877111 -32.473868 205.156993
867 87 5 0 -154.097034 -28.854174 203.920095
868 87 6 0 -157.316956 -25.234480 202.683198
869 87 6 0 -160.536879 -21.614787 201.446300
870 87 5 0 -163.756801 -17.995093 200.209402
871 88 4 0 161.732213 -178.660434 287.901061
872 88 6 0 162.749317 -177.823358 283.077700
873 88 6 0 163.766420 -176.986281 278.254340
874 88 5 0 164.783523 -176.149205 273.430980
875 88 6 0 165.800627 -175.312128 268.607620
876 88 6 0 166.817730 -174.475052 263.784259
877 88 5 0 167.834833 -173.637976 258.960899
878 88 6 0 168.851937 -172.800899 254.137539
879 88 6 0 169.869040 -171.963823 249.314179
880 88 5 0 170.886143 -171.126747 244.490819
881 89 4 0 33.611023 31.219162 215.299703
882 89 6 0 35.938622 34.145286 218.619355
883 89 6 0 38.266220 37.071410 221.939006
884 89 5 0 40.593819 39.997534 225.258657
885 89 6 0 42.921417 42.923658 228.578308
886 89 6 0 45.249016 45.849782 231.897959
887 89 5 0 47.576614 48.775906 235.217610
888 89 6 0 49.904213 51.702030 238.537262
889 89 6 0 52.231811 54.628154 241.856913
890 89 5 0 54.559410 57.554278 245.176564
891 90 4 0 27.316057 -45.870891 280.605344
892 90 6 0 31.415179 -48.731107 280.477436
893 90 6 0 35.514301 -51.591323 280.349529
894 90 5 0 39.613424 -54.451539 280.221621
895 90 6 0 43.712546 -57.311755 280.093713
896 90 6 0 47.811668 -60.171971 279.965805
897 90 5 0 51.910791 -63.032187 279.837898
898 90 6 0 56.009913 -65.892404 279.709990
899 90 6 0 60.109035 -68.752620 279.582082
900 90 5 0 64.208158 -71.612836 279.454174
901 91 4 0 -228.244327 110.438378 205.634625
902 91 6 0 -224.419899 108.191837 207.942613
903 91 6 0 -220.595472 105.945296 210.250601
904 91 5 0 -216.771044 103.698756 212.558588
905 91 6 0 -212.946616 101.452215 214.866576
906 91 6 0 -209.122189 99.205674 217.174564
907 91 5 0 -205.297761 96.959133 219.482552
908 91 6 0 -201.473334 94.712592 221.790539
909 91 6 0 -197.648906 92.466051 224.098527
910 91 5 0 -193.824478 90.219510 226.406515
911 92 4 0 -53.845231 -56.562869 260.397503
912 92 6 0 -48.867672 -56.722248 259.951971
913 92 6 0 -43.890112 -56.881626 259.506438
914 92 5 0 -38.912553 -57.041005 259.060905
915 92 6 0 -33.934993 -57.200384 258.615372
916 92 6 0 -28.957434 -57.359762 258.169839
917 92 5 0 -23.979874 -57.519141 257.724307
918 92 6 0 -19.002315 -57.678520 257.278774
919 92 6 0 -14.024755 -57.837898 256.833241
920 92 5 0 -9.047196 -57.997277 256.387708
921 93 4 0 141.960780 -45.676675 227.896672
922 93 6 0 143.435570 -42.178749 231.150824
923 93 6 0 144.910360 -38.680822 234.404976
924 93 5 0 146.385149 -35.182895 237.659128
925 93 6 0 147.859939 -31.684968 240.913279
926 93 6 0 149.334729 -28.187042 244.167431
927 93 5 0 150.809519 -24.689115 247.421583
928 93 6 0 152.284309 -21.191188 250.675735
929 93 6 0 153.759099 -17.693262 253.929886
930 93 5 0 155.233889 -14.195335 257.184038
931 94 4 0 118.002120 -34.995497 205.477881
932 94 6 0 120.789129 -32.192779 208.540128
933 94 6 0 123.576139 -29.390062 211.602375
934 94 5 0 126.363148 -26.587344 214.664622
935 94 6 0 129.150157 -23.784627 217.726868
936 94 6 0 131.937166 -20.981910 220.789115
937 94 5 0 134.724175 -18.179192 223.851362
938 94 6 0 137.511184 -15.376475 226.913609
939 94 6 0 140.298194 -12.573758 229.975855
940 94 5 0 143.085203 -9.771040 233.038102
941 95 4 0 -34.622808 -165.881543 152.103943
942 95 6 0 -35.556606 -166.568809 147.240232
943 95 6 0 -36.490404 -167.256075 142.376520
944 95 5 0 -37.424202 -167.943341 137.512809
945 95 6 0 -38.358000 -168.630606 132.649098
946 95 6 0 -39.291798 -169.317872 127.785387
947 95 5 0 -40.225596 -170.005138 122.921675
948 95 6 0 -41.159394 -170.692404 118.057964
949 95 6 0 -42.093191 -171.379670 113.194253
950 95 5 0 -43.026989 -172.066935 108.330542
951 96 4 0 -6.741851 219.912209 240.412440
952 96 6 0 -5.607379 215.678445 238.006569
953 96 6 0 -4.472906 211.444682 235.600697
954 96 5 0 -3.338434 207.210918 233.194826
955 96 6 0 -2.203961 202.977154 230.788955
956 96 6 0 -1.069489 198.743391 228.383083
957 96 5 0 0.064984 194.509627 225.977212
958 96 6 0 1.199456 190.275863 223.571340
959 96 6 0 2.333928 186.042100 221.165469
960 96 5 0 3.468401 181.808336 218.759597
961 97 4 0 26.874939 208.857907 165.355131
962 97 6 0 25.723539 204.263073 166.955687
963 97 6 0 24.572139 199.668239 168.556244
964 97 5 0 23.420739 195.073405 170.156800
965 97 6 0 22.269339 190.478572 171.757356
966 97 6 0 21.117939 185.883738 173.357913
967 97 5 0 19.966539 181.288904 174.958469
968 97 6 0 18.815140 176.694070 176.559025
969 97 6 0 17.663740 172.099236 178.159581
970 97 5 0 16.512340 167.504402 179.760138
971 98 4 0 58.974551 167.235249 204.735540
972 98 6 0 54.543708 165.634892 206.410799
973 98 6 0 50.112865 164.034535 208.086057
974 98 5 0 45.682023 162.434179 209.761315
975 98 6 0 41.251180 160.833822 211.436574
976 98 6 0 36.820337 159.233465 213.111832
977 98 5 0 32.389494 157.633109 214.787090
978 98 6 0 27.958651 156.032752 216.462349
979 98 6 0 23.527809 154.432395 218.137607
980 98 5 0 19.096966 152.832039 219.812865
981 99 4 0 117.348728 215.234595 227.034172
982 99 6 0 114.135875 211.424439 226.633813
983 99 6 0 110.923022 207.614283 226.233454
984 99 5 0 107.710169 203.804127 225.833096
985 99 6 0 104.497316 199.993972 225.432737
986 99 6 0 101.284463 196.183816 225.032378
987 99 5 0 98.071610 192.373660 224.632019
988 99 6 0 94.858757 188.563504 224.231660
989 99 6 0 91.645904 184.753348 223.831302
990 99 5 0 88.433051 180.943192 223.430943
991 100 4 0 -134.792776 59.198714 157.397444
992 100 6 0 -131.403745 61.289278 160.421351
993 100 6 0 -128.014714 63.379842 163.445257
994 100 5 0 -124.625683 65.470406 166.469164
995 100 6 0 -121.236652 67.560970 169.493070
996 100 6 0 -117.847621 69.651534 172.516977
997 100 5 0 -114.458589 71.742098 175.540883
998 100 6 0 -111.069558 73.832661 178.564790
999 100 6 0 -107.680527 75.923225 181.588696
1000 100 5 0 -104.291496 78.013789 184.612603
1001 101 4 0 -149.647689 114.225506 168.352203
1002 101 6 0 -148.526209 116.296414 172.762830
1003 101 6 0 -147.404729 118.367322 177.173456
1004 101 5 0 -146.283249 120.438230 181.584082
1005 101 6 0 -145.161769 122.509138 185.994708
1006 101 6 0 -144.040289 124.580046 190.405334
1007 101 5 0 -142.918809 126.650954 194.815960
1008 101 6 0 -141.797329 128.721862 199.226586
1009 101 6 0 -140.675849 130.792770 203.637212
1010 101 5 0 -139.554369 132.863678 208.047839
1011 102 4 0 -124.007564 -144.403564 109.643515
1012 102 6 0 -127.606767 -143.036209 112.833511
1013 102 6 0 -131.205971 -141.668854 116.023506
1014 102 5 0 -134.805175 -140.301500 119.213502
1015 102 6 0 -138.404379 -138.934145 122.403498
1016 102 6 0 -142.003583 -137.566790 125.593494
1017 102 5 0 -145.602787 -136.199436 128.783489
1018 102 6 0 -149.201990 -134.832081 131.973485
1019 102 6 0 -152.801194 -133.464726 135.163481
1020 102 5 0 -156.400398 -132.097372 138.353477
1021 103 4 0 -12.514795 -176.614803 186.658213
1022 103 6 0 -12.932073 -171.675036 186.006614
1023 103 6 0 -13.349352 -166.735269 185.355015
1024 103 5 0 -13.766630 -161.795502 184.703417
1025 103 6 0 -14.183909 -156.855735 184.051818
1026 103 6 0 -14.601188 -151.915968 183.400219
1027 103 5 0 -15.018466 -146.976201 182.748620
1028 103 6 0 -15.435745 -142.036434 182.097022
1029 103 6 0 -15.853023 -137.096667 181.445423
1030 103 5 0 -16.270302 -132.156900 180.793824
1031 104 4 0 78.245410 -59.036917 196.950585
1032 104 6 0 73.700152 -58.294541 198.897249
1033 104 6 0 69.154893 -57.552164 200.843913
1034 104 5 0 64.609635 -56.809788 202.790577
1035 104 6 0 60.064376 -56.067412 204.737242
1036 104 6 0 55.519118 -55.325035 206.683906
1037 104 5 0 50.973859 -54.582659 208.630570
1038 104 6 0 46.428600 -53.840283 210.577234
1039 104 6 0 41.883342 -53.097906 212.523899
1040 104 5 0 37.338083 -52.355530 214.470563
1041 105 4 0 84.914205 -175.419634 166.861285
1042 105 6 0 88.086093 -175.744507 170.712724
1043 105 6 0 91.257981 -176.069380 174.564163
1044 105 5 0 94.429869 -176.394253 178.415602
1045 105 6 0 97.601757 -176.719126 182.267042
1046 105 6 0 100.773645 -177.043999 186.118481
1047 105 5 0 103.945533 -177.368872 189.969920
1048 105 6 0 107.117421 -177.693745 193.821359
1049 105 6 0 110.289309 -178.018619 197.672799
1050 105 5 0 113.461197 -178.343492 201.524238
1051 106 4 0 141.586900 -230.000000 181.650500
1052 106 6 0 144.607401 -228.241291 178.075095
1053 106 6 0 147.627902 -226.482583 174.499690
1054 106 5 0 150.648402 -224.723874 170.924286
1055 106 6 0 153.668903 -222.965165 167.348881
1056 106 6 0 156.689404 -221.206457 163.773476
1057 106 5 0 159.709905 -219.447748 160.198072
1058 106 6 0 162.730406 -217.689039 156.622667
1059 106 6 0 165.750907 -215.930331 153.047262
1060 106 5 0 168.771407 -214.171622 149.471858
1061 107 4 0 -185.622750 -148.640393 173.805402
1062 107 6 0 -181.210306 -147.994351 176.066591
1063 107 6 0 -176.797863 -147.348309 178.327779
1064 107 5 0 -172.385419 -146.702267 180.588967
1065 107 6 0 -167.972976 -146.056224 182.850155
1066 107 6 0 -163.560532 -145.410182 185.111343
1067 107 5 0 -159.148089 -144.764140 187.372531
1068 107 6 0 -154.735645 -144.118097 189.633719
1069 107 6 0 -150.323202 -143.472055 191.894907
1070 107 5 0 -145.910758 -142.826013 194.156095
1071 108 4 0 54.992007 2.079843 149.817126
1072 108 6 0 51.735099 5.785100 149.002499
1073 108 6 0 48.478190 9.490357 148.187873
1074 108 5 0 45.221281 13.195614 147.373246
1075 108 6 0 41.964373 16.900871 146.558620