LAMMPS data file via write_data, version 5 Jun 2019, timestep = 340000000

5660 atoms
11 atom types
5929 bonds
7 bond types
4660 angles
4 angle types

-3.0000000000000000e+02 3.0000000000000000e+02 xlo xhi
-3.0000000000000000e+02 3.0000000000000000e+02 ylo yhi
0.0000000000000000e+00 3.0000000000000000e+02 zlo zhi

Masses

1 1000
2 450
3 450
4 11000
5 7000
6 450
7 450
8 450
9 450
10 450
11 20000

Pair Coeffs # lj/cut

1 0.24 10
2 0.24 10
3 0.24 10
4 0.24 10
5 0.24 10
6 0.24 10
7 0.24 10
8 0.24 10
9 0.24 10
10 0.24 10
11 0.24 30

Angle Coeffs # cosine

1 1
2 1
3 1
4 1

Atoms # full

2084 209 5 0.0000000000000000e+00 -2.5962387554459769e+02 -9.8724231839109592e+01 3.7549614415177274e+01 0 0 0
2085 209 6 0.0000000000000000e+00 -2.6979626319653778e+02 -9.7074250351845961e+01 3.6574742404849424e+01 0 0 0
760 76 3 0.0000000000000000e+00 -2.5052294024967242e+02 -1.1867700746408379e+02 3.3031748966827948e+01 0 0 0
821 83 4 0.0000000000000000e+00 -2.5268390580309645e+02 -1.0742830847258091e+02 3.2847310673050892e+01 0 0 0
1961 197 4 0.0000000000000000e+00 -2.1409885744060355e+02 -1.0208483096987420e+02 2.4864519601878186e+01 0 0 0
757 76 3 0.0000000000000000e+00 -2.3854891851174094e+02 -1.0087169181692295e+02 3.7944685273160722e+01 0 0 0
756 76 2 0.0000000000000000e+00 -2.3408791661637324e+02 -9.8379762442824102e+01 2.8912653547414724e+01 0 0 0
759 76 2 0.0000000000000000e+00 -2.4917480134024254e+02 -1.1558481498277391e+02 4.2136652498423160e+01 0 0 0
758 76 2 0.0000000000000000e+00 -2.4303632065812604e+02 -1.0963283676970269e+02 3.6698770840544263e+01 0 0 0
822 83 6 0.0000000000000000e+00 -2.5026169904673674e+02 -9.9264412194081444e+01 2.7002250150901340e+01 0 0 0
754 76 3 0.0000000000000000e+00 -2.1920890259318708e+02 -9.9211416286606934e+01 1.6569779135283682e+01 0 0 0
755 76 2 0.0000000000000000e+00 -2.2707538767931888e+02 -9.7452146774604188e+01 2.2261314328096489e+01 0 0 0
5640 494 10 0.0000000000000000e+00 -2.6072083068251851e+02 -8.0375738098279939e+01 2.7056217749830747e+01 0 1 0
5641 494 11 0.0000000000000000e+00 -2.6463849423028739e+02 -8.2939895156592996e+01 3.5684481627497760e+01 0 1 0
945 95 6 0.0000000000000000e+00 -2.8490767117550251e+02 -6.2709807391270324e+01 3.1446890583230861e+01 0 0 0
944 95 5 0.0000000000000000e+00 -2.8618015754005586e+02 -5.8911994593122799e+01 2.2640033182076618e+01 0 0 0
974 98 5 0.0000000000000000e+00 -2.8369011427914654e+02 -8.2931464946671269e+01 2.5432593864802083e+01 0 0 0
2249 225 6 0.0000000000000000e+00 -2.6474877563350719e+02 -6.6977374676529422e+01 3.2056326256247218e+01 0 0 0
946 95 6 0.0000000000000000e+00 -2.7799573681700986e+02 -7.0510221516524979e+01 3.0701869222585056e+01 0 0 0
975 98 6 0.0000000000000000e+00 -2.8730792868294338e+02 -7.9454596977985730e+01 3.4147631197205165e+01 0 0 0
947 95 5 0.0000000000000000e+00 -2.7596142431385613e+02 -7.0553304938048143e+01 4.0294655617020979e+01 0 0 0
971 98 4 0.0000000000000000e+00 -2.9403984090294159e+02 -6.6984035653053141e+01 2.0878213548455321e+01 0 0 0
4336 380 8 0.0000000000000000e+00 -2.6805801208610126e+02 -6.8382130667686241e+01 1.1393385939759966e+01 1 0 0
664 67 3 0.0000000000000000e+00 -2.9168278618792237e+02 -6.4402334773764352e+01 9.7713353475011999e+00 1 0 0
976 98 6 0.0000000000000000e+00 -2.8844243375568192e+02 -7.0448280936385558e+01 3.8418736810038901e+01 0 0 0
943 95 6 0.0000000000000000e+00 -2.9514066777738856e+02 -5.6983906790409719e+01 1.8874986999336457e+01 0 0 0
973 98 6 0.0000000000000000e+00 -2.8048130618766322e+02 -7.7499168819362637e+01 1.7303727712435737e+01 0 0 0
972 98 6 0.0000000000000000e+00 -2.8774806426227889e+02 -7.4229449250845107e+01 2.4090353939495124e+01 0 0 0
2248 225 6 0.0000000000000000e+00 -2.5579184709319259e+02 -6.4268860699501261e+01 3.3313247698904881e+01 0 0 0
4337 380 7 0.0000000000000000e+00 -2.6155697946270243e+02 -6.1268744861139410e+01 1.2818525693496525e+01 1 0 0
663 67 2 0.0000000000000000e+00 -2.9298003390515754e+02 -7.4482066997768769e+01 1.0655852504581679e+01 1 0 0
4338 380 8 0.0000000000000000e+00 -2.5530834699294962e+02 -6.9084772809568094e+01 1.4885355235960230e+01 1 0 0
4335 380 8 0.0000000000000000e+00 -2.6739210118766397e+02 -6.7112392383873299e+01 2.1853647971712835e+01 1 0 0
661 67 1 0.0000000000000000e+00 -2.9313632030902045e+02 -8.4562382275742905e+01 7.9355000000000002e+00 1 0 0
2250 225 5 0.0000000000000000e+00 -2.6320247569231231e+02 -5.7796599599438110e+01 3.5769038328519187e+01 0 0 0
4334 380 7 0.0000000000000000e+00 -2.6726135153165706e+02 -5.8057415620312838e+01 2.6140888346710966e+01 1 0 0
4339 380 8 0.0000000000000000e+00 -2.5725113466085094e+02 -7.8545873750279540e+01 1.6383978917173344e+01 1 0 0
662 67 2 0.0000000000000000e+00 -2.9979489437464053e+02 -8.0986690766221813e+01 1.5234786031186813e+01 1 0 0
4340 380 9 0.0000000000000000e+00 -2.5189204065071502e+02 -8.4133439685587334e+01 2.2441396414524679e+01 1 0 0
2081 209 4 0.0000000000000000e+00 -2.4671724262828445e+02 -9.3741138259677214e+01 3.9864842002847318e+01 0 0 0
751 76 1 0.0000000000000000e+00 -2.1270091880956784e+02 -9.3572013239113033e+01 6.8810700000000002e+00 0 0 0
753 76 2 0.0000000000000000e+00 -2.1373025669556327e+02 -9.1930656958270745e+01 2.0103014676379289e+01 0 0 0
2247 225 5 0.0000000000000000e+00 -2.4881790758051400e+02 -7.1341151374732902e+01 3.3236633925031285e+01 0 0 0
823 83 6 0.0000000000000000e+00 -2.4396877427528690e+02 -9.2357668047595155e+01 2.9944023137594463e+01 0 0 0
572 58 2 0.0000000000000000e+00 -2.4347632615098942e+02 -7.3812394493053461e+01 3.4326045187886964e+00 0 0 0
2246 225 6 0.0000000000000000e+00 -2.4735827394891984e+02 -7.5748083286556309e+01 2.4579074080168574e+01 0 0 0
2245 225 6 0.0000000000000000e+00 -2.4126829061714875e+02 -7.5014621270682014e+01 1.6826779874141309e+01 0 0 0
571 58 1 0.0000000000000000e+00 -2.3360426861063195e+02 -7.5254326756724609e+01 5.0072700000000001e+00 0 0 0
2244 225 5 0.0000000000000000e+00 -2.3504367545318968e+02 -6.7182625368881986e+01 1.6858016498234502e+01 0 0 0
824 83 5 0.0000000000000000e+00 -2.3566890072342994e+02 -9.0562399630546849e+01 3.5740135623025310e+01 0 0 0
2243 225 6 0.0000000000000000e+00 -2.3419702243783661e+02 -6.1608412970891784e+01 2.5153420042072163e+01 0 0 0
5120 422 7 0.0000000000000000e+00 -2.2147867362816194e+02 -6.7133674661354064e+01 3.3251728935198898e+01 0 0 0
5121 422 8 0.0000000000000000e+00 -2.3138519309399581e+02 -6.9199712439181724e+01 3.4731890716295240e+01 0 0 0
5122 422 8 0.0000000000000000e+00 -2.3897369054295854e+02 -6.5051937729141471e+01 3.9118457323333232e+01 0 0 0
573 58 2 0.0000000000000000e+00 -2.4690825489752820e+02 -6.5090540887849500e+01 6.9091242759180869e+00 0 0 0
1088 109 6 0.0000000000000000e+00 -2.1168917216064287e+02 -9.0655741151162758e+01 3.9293272963349686e+01 0 0 0
5346 433 8 0.0000000000000000e+00 -2.1135875131220325e+02 -6.1320675494872305e+01 3.9905975536294115e+01 0 0 0
5336 433 8 0.0000000000000000e+00 -2.2354138474065869e+02 -8.6001306067155070e+01 4.0730943937222690e+01 0 0 0
575 58 2 0.0000000000000000e+00 -2.5056215289922491e+02 -5.8812182754414501e+01 2.4722325727529167e+01 0 0 0
825 83 6 0.0000000000000000e+00 -2.3536516480987578e+02 -8.1874549157812766e+01 4.0932302749716634e+01 0 0 0
5337 433 8 0.0000000000000000e+00 -2.1446959746914439e+02 -8.0888330284263617e+01 3.8505902717210546e+01 0 0 0
574 58 3 0.0000000000000000e+00 -2.4975705456137800e+02 -5.9158735851086341e+01 1.4681510360071183e+01 0 0 0
1980 198 5 0.0000000000000000e+00 -2.1797647622126163e+02 -5.8281618417565127e+01 1.5651613180049651e+01 0 0 0
5338 433 7 0.0000000000000000e+00 -2.1185476920131376e+02 -8.0427008846191882e+01 2.8979422051561357e+01 0 0 0
1352 136 6 0.0000000000000000e+00 -2.2790057519685573e+02 -5.9978594918239054e+01 4.2422600875155446e+01 0 0 0
1351 136 4 0.0000000000000000e+00 -2.2897637354617797e+02 -5.6448741128951745e+01 3.3090946028564424e+01 0 0 0
2762 277 6 0.0000000000000000e+00 -2.3882363781157761e+02 -5.7775242589829851e+01 5.2853104969209328e+00 0 0 0
5123 422 7 0.0000000000000000e+00 -2.4796175673445066e+02 -6.2143946793586217e+01 4.2149302447215867e+01 0 0 0
752 76 2 0.0000000000000000e+00 -2.0774380999980173e+02 -8.8538399148435161e+01 1.3143464794648802e+01 0 0 0
665 67 2 0.0000000000000000e+00 -2.9107608346617724e+02 -5.4611106057463850e+01 9.4851852666540832e+00 1 0 0
2420 242 5 0.0000000000000000e+00 -2.6262705257857863e+02 -5.2956791965079077e+01 4.8528309057529180e+00 0 0 0
4333 380 8 0.0000000000000000e+00 -2.7641935866448068e+02 -5.3742773525562200e+01 2.3082222238118284e+01 1 0 0
4331 380 7 0.0000000000000000e+00 -2.9415536831325835e+02 -4.8130964796063282e+01 2.7405132572391796e+01 1 0 0
2419 242 6 0.0000000000000000e+00 -2.6596285802011857e+02 -5.2615777770124438e+01 1.3883651374139662e+01 0 0 0
3930 359 8 0.0000000000000000e+00 -2.7209766780422763e+02 -4.6439883242326914e+01 3.0634685407365474e+01 0 0 0
4332 380 8 0.0000000000000000e+00 -2.8428714983211523e+02 -5.0225801896987015e+01 2.7682267381897212e+01 1 0 0
2760 276 5 0.0000000000000000e+00 -2.9102250502782101e+02 -3.7090833234753596e+01 6.9527039937205890e+00 0 0 0
2418 242 6 0.0000000000000000e+00 -2.6693657180704946e+02 -4.6842125608878931e+01 2.1903418379493061e+01 0 0 0
2417 242 5 0.0000000000000000e+00 -2.7137553670193535e+02 -3.7843645135201847e+01 2.1987435528044564e+01 0 0 0
3928 359 8 0.0000000000000000e+00 -2.8223620791975969e+02 -3.3342489989752409e+01 2.0541669465280552e+01 0 0 0
3927 359 8 0.0000000000000000e+00 -2.8057139840224596e+02 -4.1865545811074931e+01 1.7058975928876901e+01 0 0 0
2416 242 6 0.0000000000000000e+00 -2.7264412717520878e+02 -2.8263975678054290e+01 1.9348822571541643e+01 0 0 0
3929 359 7 0.0000000000000000e+00 -2.8069528959071630e+02 -4.1089245617014519e+01 2.7800219184241090e+01 0 0 0
2415 242 6 0.0000000000000000e+00 -2.7494578300189545e+02 -2.2293880991638108e+01 2.7889031749996565e+01 0 0 0
3926 359 7 0.0000000000000000e+00 -2.7922580696704989e+02 -3.5656330554421586e+01 9.1929678809969584e+00 0 0 0
3925 359 8 0.0000000000000000e+00 -2.7252667192771014e+02 -4.3485852530357292e+01 7.4574353758590819e+00 0 0 0
2414 242 5 0.0000000000000000e+00 -2.7923523068832009e+02 -2.3651670519574189e+01 3.6924020626901040e+01 0 0 0
2475 248 6 0.0000000000000000e+00 -2.6043042243958996e+02 -3.1329908196403697e+01 2.3727835601397754e+01 0 0 0
5019 416 8 0.0000000000000000e+00 -2.6490684512093128e+02 -3.0891615002591323e+01 4.0165795145892645e+01 0 0 0
666 67 2 0.0000000000000000e+00 -2.9043772179921291e+02 -4.7773134700037886e+01 1.7084418448987016e+01 1 0 0
667 67 3 0.0000000000000000e+00 -2.9402004561730496e+02 -3.8472386580573684e+01 1.8796274194368102e+01 1 0 0
5018 416 7 0.0000000000000000e+00 -2.5978125272333864e+02 -2.5918229516225459e+01 3.3548558589271657e+01 0 0 0
668 67 2 0.0000000000000000e+00 -2.9705147319696147e+02 -3.5645668681117478e+01 2.8014185360391579e+01 1 0 0
2474 248 5 0.0000000000000000e+00 -2.6330952832438953e+02 -2.3109428527181663e+01 1.9641358299849458e+01 0 0 0
669 67 2 0.0000000000000000e+00 -2.9020159155639737e+02 -3.2435444980083759e+01 3.3582780720268971e+01 1 0 0
3326 327 8 0.0000000000000000e+00 -2.9311637495562462e+02 -2.2910608549723758e+01 4.0179744920361230e+01 1 0 0
670 67 3 0.0000000000000000e+00 -2.8858193402692683e+02 -2.3772619079175470e+01 2.9251440780918369e+01 1 0 0
2759 276 6 0.0000000000000000e+00 -2.9686757561658999e+02 -2.9538747278337212e+01 3.8258469419327183e+00 0 0 0
3924 359 8 0.0000000000000000e+00 -2.6397874828181028e+02 -3.9279953461635891e+01 5.2386820840875812e+00 0 0 0
3931 359 8 0.0000000000000000e+00 -2.6747714172640275e+02 -4.3834067865877323e+01 3.9188713892816331e+01 0 0 0
3923 359 7 0.0000000000000000e+00 -2.6511254976331583e+02 -3.1154388447713472e+01 1.1712881652213834e+01 0 0 0
2476 248 6 0.0000000000000000e+00 -2.5511062642329532e+02 -3.2226980700052515e+01 1.5084269728665838e+01 0 0 0
2413 242 6 0.0000000000000000e+00 -2.7099358558828465e+02 -1.7705427945356949e+01 3.9974739156922489e+01 0 0 0
3325 327 8 0.0000000000000000e+00 -2.8742965547390895e+02 -1.6380596957928542e+01 3.8209661906994683e+01 1 0 0
5017 416 8 0.0000000000000000e+00 -2.5590237099239965e+02 -1.8009942328920435e+01 2.9117302216612782e+01 0 0 0
2473 248 6 0.0000000000000000e+00 -2.5528614804861326e+02 -1.7606660942459886e+01 1.5987075597947991e+01 0 0 0
932 94 6 0.0000000000000000e+00 -2.9798802555278286e+02 -1.9385328942579989e+01 3.0483516042778554e+01 1 0 0
3932 359 7 0.0000000000000000e+00 -2.7351324226831218e+02 -3.6734929164912984e+01 4.1780949102521234e+01 0 0 0
576 58 2 0.0000000000000000e+00 -2.4672869813103014e+02 -5.4903272543870379e+01 3.3110460489338386e+01 0 0 0
2242 225 6 0.0000000000000000e+00 -2.3982914312208209e+02 -5.3359005657537310e+01 2.6897019322344597e+01 0 0 0
577 58 3 0.0000000000000000e+00 -2.4545644218482084e+02 -5.2025446510895918e+01 4.2838061849649861e+01 0 0 0
2763 277 6 0.0000000000000000e+00 -2.3281231570704188e+02 -5.3493427812509928e+01 1.1411501818915751e+01 0 0 0
2764 277 5 0.0000000000000000e+00 -2.2635764713509221e+02 -5.0286902738196993e+01 1.8065542085011195e+01 0 0 0
580 58 3 0.0000000000000000e+00 -2.2460731274860950e+02 -4.6830045712595933e+01 3.7090490578205333e+01 0 0 0
2761 277 4 0.0000000000000000e+00 -2.4861038249448288e+02 -5.4186944090409852e+01 4.2638874754778016e+00 0 0 0
2765 277 6 0.0000000000000000e+00 -2.3210016158140263e+02 -4.7887792419064731e+01 2.6133994581265029e+01 0 0 0
2477 248 5 0.0000000000000000e+00 -2.4808207793041282e+02 -3.9309978337831744e+01 1.5121674815805761e+01 0 0 0
2478 248 6 0.0000000000000000e+00 -2.3829754911866198e+02 -4.0720347022809705e+01 1.4341748442640462e+01 0 0 0
2241 225 4 0.0000000000000000e+00 -2.4158949379265681e+02 -4.6392961421286685e+01 3.3738182390345038e+01 0 0 0
2479 248 6 0.0000000000000000e+00 -2.2928169921964465e+02 -3.8956295377585199e+01 9.7978414836016157e+00 0 0 0
2480 248 5 0.0000000000000000e+00 -2.2285344910213362e+02 -4.0639462149323059e+01 2.4750701328380522e+00 0 0 0
2766 277 6 0.0000000000000000e+00 -2.3644847948701147e+02 -3.9267774766581432e+01 2.8701986260045715e+01 0 0 0
2767 277 5 0.0000000000000000e+00 -2.3105602665290593e+02 -3.1478305382609832e+01 2.5961816202394857e+01 0 0 0
2424 243 5 0.0000000000000000e+00 -2.2251335456767799e+02 -3.5341780530878559e+01 2.4683897381218447e+01 0 0 0
5629 490 11 0.0000000000000000e+00 -2.3678655485617927e+02 -2.1903497367773429e+01 2.7653841212436802e+01 0 0 0
2768 277 6 0.0000000000000000e+00 -2.3337968044182841e+02 -2.8881701026531935e+01 3.5086477102036483e+01 0 0 0
2425 243 6 0.0000000000000000e+00 -2.1853459447202985e+02 -3.3878768856343406e+01 3.3849742943569815e+01 0 0 0
5022 416 8 0.0000000000000000e+00 -2.4869926068749510e+02 -3.1169565743288931e+01 3.0331875871692507e+01 0 0 0
5023 416 8 0.0000000000000000e+00 -2.5084212005250143e+02 -2.4920867571012092e+01 2.1957430245924868e+01 0 0 0
5630 490 10 0.0000000000000000e+00 -2.2705894306449531e+02 -2.3066463415593404e+01 3.0067201788261016e+01 0 0 0
2423 243 6 0.0000000000000000e+00 -2.1765412757321408e+02 -2.7324622567820981e+01 2.1751453919785988e+01 0 0 0
5024 416 9 0.0000000000000000e+00 -2.4412241476601736e+02 -1.8253568292885799e+01 2.0917984011371626e+01 0 0 0
5628 490 10 0.0000000000000000e+00 -2.3986486919924263e+02 -2.9215694807104807e+01 2.1029784092249610e+01 0 0 0
1979 198 6 0.0000000000000000e+00 -2.1591250826276581e+02 -4.9763987926242002e+01 1.9615416091563738e+01 0 0 0
731 74 1 0.0000000000000000e+00 -2.3560859523289261e+02 -2.8902720372547233e+01 5.0286200000000001e+00 0 0 0
732 74 2 0.0000000000000000e+00 -2.3024021415815577e+02 -2.1429215794160925e+01 9.3554913730581628e+00 0 0 0
2422 243 6 0.0000000000000000e+00 -2.0881737994840503e+02 -2.2656534269551479e+01 2.2857112970554084e+01 0 0 0
737 74 3 0.0000000000000000e+00 -2.1769348440648582e+02 -2.0276896778611817e+01 3.9530527985829622e+01 0 0 0
1978 198 6 0.0000000000000000e+00 -2.1544610853518080e+02 -4.5425635912186252e+01 2.8323897936881117e+01 0 0 0
738 74 2 0.0000000000000000e+00 -2.0970995480844030e+02 -2.4597585688359608e+01 3.5580654217627092e+01 0 0 0
5021 416 7 0.0000000000000000e+00 -2.4887825676664733e+02 -2.9746991312568497e+01 4.0140004064103486e+01 0 0 0
579 58 2 0.0000000000000000e+00 -2.3268909651973425e+02 -4.2873211978278796e+01 4.1199358938049954e+01 0 0 0
2426 243 6 0.0000000000000000e+00 -2.2495292818323514e+02 -3.5962825942186505e+01 4.1353322343308690e+01 0 0 0
5016 416 8 0.0000000000000000e+00 -2.4693851338251804e+02 -1.5745356376464944e+01 3.1682831705166628e+01 0 0 0
4796 404 9 0.0000000000000000e+00 -2.3056421639892761e+02 -1.5987844572301572e+01 3.8514604123184725e+01 0 0 0
736 74 2 0.0000000000000000e+00 -2.1813794139526604e+02 -1.6607319082734065e+01 3.0182409572972631e+01 0 0 0
5639 493 10 0.0000000000000000e+00 -2.1700519509361851e+02 -5.0665958146822312e+01 4.2243028855196826e+01 0 0 0
934 94 5 0.0000000000000000e+00 -2.9978370686889383e+02 -5.6953823258509511e+00 4.1112851685583934e+01 1 0 0
931 94 4 0.0000000000000000e+00 -2.9196890787267881e+02 -1.4087343257889763e+01 2.4535341491395567e+01 1 0 0
4470 387 7 0.0000000000000000e+00 -2.8302869474314531e+02 2.1684884601053213e+01 3.8718564262241472e+01 1 0 0
1691 170 4 0.0000000000000000e+00 -2.6975920276848126e+02 1.3619155572671527e+01 2.6865922743551344e+01 0 0 0
198 20 2 0.0000000000000000e+00 -2.7653216718258534e+02 -8.0139278413064474e-01 3.6255111665534926e+01 0 0 0
197 20 3 0.0000000000000000e+00 -2.7360958860166966e+02 3.0557558973185497e+00 2.7752541147742907e+01 0 0 0
2551 256 4 0.0000000000000000e+00 -2.8847258096394984e+02 1.6092240236482255e+01 9.6905501110286210e+00 0 0 0
2600 260 5 0.0000000000000000e+00 -2.8572387075008680e+02 1.3194826684203322e+01 3.1706291166949583e+01 1 0 0
195 20 2 0.0000000000000000e+00 -2.8289385462149795e+02 1.6589105772280977e+01 1.7751261941771300e+01 0 0 0
196 20 2 0.0000000000000000e+00 -2.7934547880528601e+02 8.1784718484232997e+00 2.2741900146267632e+01 0 0 0
1694 170 5 0.0000000000000000e+00 -2.6895374738304849e+02 5.9562762652057755e+00 3.5613762347733022e+01 0 0 0
1693 170 6 0.0000000000000000e+00 -2.7727579454365139e+02 1.2295872755906716e+01 3.6966748011447230e+01 0 0 0
1692 170 6 0.0000000000000000e+00 -2.7673667156578222e+02 1.9282027128042991e+01 3.0538980912049933e+01 0 0 0
2552 256 6 0.0000000000000000e+00 -2.9124069909894320e+02 2.2809976804619104e+01 1.6616417171099794e+01 0 0 0
2599 260 6 0.0000000000000000e+00 -2.9336282025273886e+02 8.6375242640461813e+00 3.5988401166215830e+01 1 0 0
5443 439 7 0.0000000000000000e+00 -2.6566087269334753e+02 1.6575321343379297e+01 3.5806065178653526e+01 0 0 0
4456 387 8 0.0000000000000000e+00 -2.7087808121371216e+02 2.5637919499021230e+01 1.9771436618717136e+01 1 0 0
5444 439 8 0.0000000000000000e+00 -2.5918836987080891e+02 1.3453898164031745e+01 4.2562810167798723e+01 0 0 0
4455 387 7 0.0000000000000000e+00 -2.7122867700099943e+02 1.5853174734169460e+01 1.7700913134184212e+01 1 0 0
194 20 3 0.0000000000000000e+00 -2.8230476440332598e+02 2.4818672040302889e+01 1.2131457027019149e+01 0 0 0
2554 256 5 0.0000000000000000e+00 -2.9523855307940931e+02 2.3558094314386540e+01 3.4512953434019948e+01 0 0 0
782 79 2 0.0000000000000000e+00 -2.5412379791318946e+02 1.3561432359558765e+01 1.4898293899912325e+01 1 0 0
733 74 2 0.0000000000000000e+00 -2.2818825675217050e+02 -1.4472457144966166e+01 1.5894085802487961e+01 0 0 0
5449 439 7 0.0000000000000000e+00 -2.5190529664406236e+02 2.4456314465897332e+01 2.6049054340879636e+01 0 0 0
5008 416 8 0.0000000000000000e+00 -2.2988230803426470e+02 2.3806665196034576e+01 2.8559218898799028e+01 0 0 0
786 79 2 0.0000000000000000e+00 -2.5093161208705473e+02 -2.7015996376681115e+00 3.5478382817104439e+01 1 0 0
5448 439 8 0.0000000000000000e+00 -2.4696409518318629e+02 2.0015511519055611e+01 3.3029789605857211e+01 0 0 0
31 4 1 0.0000000000000000e+00 -2.1271152805100820e+02 -1.3597079312172308e+01 4.7217000000000002e+00 0 0 0
5015 416 7 0.0000000000000000e+00 -2.4359303882608054e+02 -1.3212125508615268e+01 4.0407747029716973e+01 0 0 0
2323 233 6 0.0000000000000000e+00 -2.1470266682732671e+02 1.6150135346445445e+01 3.2533702592239173e+01 0 0 0
785 79 2 0.0000000000000000e+00 -2.5080186530368715e+02 -8.1570567021168688e-02 2.5890552483263058e+01 1 0 0
735 74 2 0.0000000000000000e+00 -2.2008140519836550e+02 -7.0426534874514033e+00 3.0768712743914058e+01 0 0 0
2472 248 6 0.0000000000000000e+00 -2.5021575866884456e+02 -1.0100181603801396e+01 2.0824636849948863e+01 0 0 0
784 79 3 0.0000000000000000e+00 -2.4656611461421107e+02 2.6392490609140928e+00 1.7314566293143109e+01 1 0 0
783 79 2 0.0000000000000000e+00 -2.4743402615127698e+02 1.1765488213161570e+01 2.2242109832270927e+01 1 0 0
2322 233 6 0.0000000000000000e+00 -2.1567969555356541e+02 1.5903143219300173e+01 2.2776074878356916e+01 0 0 0
2471 248 4 0.0000000000000000e+00 -2.4194469861146297e+02 -4.8872593524681456e+00 2.4434528849407240e+01 0 0 0
734 74 3 0.0000000000000000e+00 -2.2678519330327200e+02 -1.3796885278371761e+01 2.6400717722751775e+01 0 0 0
2901 291 4 0.0000000000000000e+00 -2.2341665581531970e+02 -4.0045358656617669e+00 2.0784984127193095e+01 0 0 0
5009 416 7 0.0000000000000000e+00 -2.3275681575018763e+02 1.4898580658768283e+01 2.4746695795254890e+01 0 0 0
2321 233 4 0.0000000000000000e+00 -2.2403532695468857e+02 1.9612771939744142e+01 1.8922395138661585e+01 0 0 0
2902 291 6 0.0000000000000000e+00 -2.1529049629539577e+02 -9.7562016946693344e+00 1.9490271498070701e+01 0 0 0
781 79 1 0.0000000000000000e+00 -2.4737807739879446e+02 1.1450917096601779e+01 8.4781800000000000e+00 1 0 0
5447 439 8 0.0000000000000000e+00 -2.4283851332582017e+02 1.5392342422364388e+01 4.0663308138002769e+01 0 0 0
5013 416 8 0.0000000000000000e+00 -2.2966899968712173e+02 -3.9909863349393091e+00 3.5945135359393170e+01 0 0 0
5011 416 8 0.0000000000000000e+00 -2.1878844270350640e+02 6.8759999905541074e+00 3.4221584922060806e+01 0 0 0
5010 416 8 0.0000000000000000e+00 -2.2375677720986531e+02 1.0264114387604526e+01 2.6002985680923082e+01 0 0 0
5014 416 8 0.0000000000000000e+00 -2.3901592887657895e+02 -7.0478314866749727e+00 3.4363631979792586e+01 0 0 0
2470 247 5 0.0000000000000000e+00 -2.3065491129217358e+02 8.9130227952549781e+00 3.8073592295427005e+01 0 0 0
5012 416 7 0.0000000000000000e+00 -2.2343024393471515e+02 1.4854264778745736e+00 4.0996690356188374e+01 0 0 0
2468 247 6 0.0000000000000000e+00 -2.1244517725404100e+02 1.5205975598526503e+01 4.2736725074388971e+01 0 0 0
3425 332 7 0.0000000000000000e+00 -2.2637102064685524e+02 2.5910963909906400e+01 4.0622185763008794e+01 0 0 0
32 4 2 0.0000000000000000e+00 -2.0865645350188001e+02 -1.4299664658560346e+01 1.4261668723833921e+01 0 0 0
2903 291 6 0.0000000000000000e+00 -2.0969345822129316e+02 -6.1410698050209618e+00 2.7075875987302314e+01 0 0 0
4346 381 8 0.0000000000000000e+00 -2.0867470860732158e+02 2.0313934572763452e+00 3.7125088107961382e+01 0 0 0
2469 247 6 0.0000000000000000e+00 -2.2196171543872944e+02 1.0946135137736890e+01 4.2393375140732338e+01 0 0 0
3901 357 8 0.0000000000000000e+00 -2.9133713376384327e+02 -1.6886165568837075e+02 7.7625330838995936e+01 1 0 0
3900 357 7 0.0000000000000000e+00 -2.9578554954384686e+02 -1.6324417824046762e+02 8.4621974740489094e+01 1 0 0
2083 209 6 0.0000000000000000e+00 -2.5500097809547540e+02 -1.0340211753993074e+02 4.4391300195195889e+01 0 0 0
1090 109 5 0.0000000000000000e+00 -2.1873151253264720e+02 -1.0277912989533799e+02 4.9547722476724346e+01 0 0 0
2082 209 6 0.0000000000000000e+00 -2.4702150200451950e+02 -9.9335705006961220e+01 4.8381195567606781e+01 0 0 0
1089 109 6 0.0000000000000000e+00 -2.1071083306285632e+02 -9.8270433470554707e+01 4.4845280683498736e+01 0 0 0
2086 209 6 0.0000000000000000e+00 -2.7451348139390603e+02 -9.2801150401228313e+01 4.4185465727724569e+01 0 0 0
5642 494 10 0.0000000000000000e+00 -2.6350451669524261e+02 -8.4499881418716242e+01 4.5283569923263485e+01 0 1 0
4057 366 8 0.0000000000000000e+00 -2.6107943971124780e+02 -9.1209426667069309e+01 5.2094044108501400e+01 0 0 0
4056 366 7 0.0000000000000000e+00 -2.5583481109216694e+02 -9.1228112404638694e+01 4.4099601139908799e+01 0 0 0
4071 366 7 0.0000000000000000e+00 -2.6764010071717047e+02 -6.4582124908366836e+01 4.6115172430402971e+01 0 0 0
2087 209 5 0.0000000000000000e+00 -2.7482225768895103e+02 -9.2882992607743518e+01 5.4493025563698062e+01 0 0 0
979 98 6 0.0000000000000000e+00 -2.9900776310214161e+02 -8.5103686338226225e+01 5.1909983480986810e+01 0 0 0
2088 209 6 0.0000000000000000e+00 -2.8377747791944569e+02 -8.9340009488380488e+01 5.3573795982845787e+01 0 0 0
4072 366 8 0.0000000000000000e+00 -2.6067125927921995e+02 -7.0219185655737817e+01 5.0858118317276180e+01 0 0 0
948 95 6 0.0000000000000000e+00 -2.7928878676013773e+02 -6.2758339129057191e+01 4.6421936746205645e+01 0 0 0
949 95 6 0.0000000000000000e+00 -2.7476305578583282e+02 -6.6162740207695009e+01 5.4119919161033131e+01 0 0 0
4058 366 8 0.0000000000000000e+00 -2.6574164157548518e+02 -8.7013486056095147e+01 6.0257588964855955e+01 0 0 0
2090 209 5 0.0000000000000000e+00 -2.7225791263000923e+02 -7.9056185085634439e+01 5.7469128316015237e+01 0 0 0
2089 209 6 0.0000000000000000e+00 -2.7982796655369066e+02 -8.4335902921442155e+01 6.0776980301249750e+01 0 0 0
4059 366 7 0.0000000000000000e+00 -2.6841646862897255e+02 -8.0664340810182253e+01 6.7840348139294449e+01 0 0 0
977 98 5 0.0000000000000000e+00 -2.8618857346484339e+02 -7.3631861870693669e+01 4.7499077492932990e+01 0 0 0
4061 366 8 0.0000000000000000e+00 -2.6212718483075685e+02 -7.7177391443969697e+01 8.2262850684047095e+01 0 0 0
950 95 5 0.0000000000000000e+00 -2.6910284540985822e+02 -7.0645123236730825e+01 6.1355037661853899e+01 0 0 0
4060 366 8 0.0000000000000000e+00 -2.6946843078723737e+02 -7.4428726996630473e+01 7.5792334578925391e+01 0 0 0
4064 366 8 0.0000000000000000e+00 -2.6485948873951912e+02 -6.2068922790831373e+01 7.7081595828412787e+01 0 0 0
978 98 6 0.0000000000000000e+00 -2.8918925599653124e+02 -8.2115634063531175e+01 5.0632850378020294e+01 0 0 0
4065 366 7 0.0000000000000000e+00 -2.6517758166691362e+02 -6.1196197463894869e+01 6.7746820584005448e+01 0 0 0
4066 366 8 0.0000000000000000e+00 -2.7187845739989626e+02 -6.0585005828338943e+01 6.1164935216714689e+01 0 0 0
4067 366 8 0.0000000000000000e+00 -2.6296012093663273e+02 -6.1342438213484201e+01 5.7449441361891580e+01 0 0 0
4063 366 8 0.0000000000000000e+00 -2.5508081103023110e+02 -6.4799384544672790e+01 7.5801424371189427e+01 0 0 0
1479 148 6 0.0000000000000000e+00 -2.9701331917045371e+02 -5.6681107998506569e+01 5.3518149494525176e+01 1 0 0
4073 366 8 0.0000000000000000e+00 -2.5376476681389684e+02 -7.0462981759402808e+01 4.3612516527862645e+01 0 0 0
4074 366 9 0.0000000000000000e+00 -2.5277429816580945e+02 -8.0043492914196321e+01 4.4430964751614553e+01 0 0 0
5347 433 9 0.0000000000000000e+00 -2.0774298585202661e+02 -5.6382432072471609e+01 4.7550598646404225e+01 0 0 0
4062 366 7 0.0000000000000000e+00 -2.5295500015243272e+02 -7.4217395667309091e+01 7.8802541939149123e+01 0 0 0
5125 422 8 0.0000000000000000e+00 -2.5380008911192027e+02 -6.5356088298758991e+01 5.8284772511672664e+01 0 0 0
5335 433 7 0.0000000000000000e+00 -2.3136744687582538e+02 -8.7819775790697662e+01 4.6784543156736973e+01 0 0 0
5124 422 8 0.0000000000000000e+00 -2.5294855040343396e+02 -5.8862748849196265e+01 5.0478242472560879e+01 0 0 0
5331 433 8 0.0000000000000000e+00 -2.1149639223906783e+02 -6.9747034735953491e+01 4.8584452593708811e+01 0 0 0
5126 422 7 0.0000000000000000e+00 -2.4981475794283543e+02 -6.7111342952787894e+01 6.6586357604118007e+01 0 0 0
5334 433 8 0.0000000000000000e+00 -2.3161159902950629e+02 -8.0539771004386068e+01 5.3251224786859304e+01 0 0 0
826 83 6 0.0000000000000000e+00 -2.3487463125494585e+02 -7.3256064283412641e+01 4.6292148005677639e+01 0 0 0
5333 433 8 0.0000000000000000e+00 -2.2410018950978710e+02 -7.7376004041891477e+01 5.8525462428330897e+01 0 0 0
5332 433 7 0.0000000000000000e+00 -2.1876563425694349e+02 -7.0475516035290326e+01 5.4403288325989870e+01 0 0 0
828 83 6 0.0000000000000000e+00 -2.2612095742986111e+02 -6.7816004030007250e+01 6.2614791626961022e+01 0 0 0
827 83 5 0.0000000000000000e+00 -2.2980253795061464e+02 -6.7600827771158862e+01 5.3482403365118884e+01 0 0 0
830 83 5 0.0000000000000000e+00 -2.4320396471122123e+02 -7.2256687511250476e+01 5.7570076332599271e+01 0 0 0
5128 422 8 0.0000000000000000e+00 -2.3505301087136016e+02 -6.4232336703320897e+01 7.3700909817630688e+01 0 0 0
5127 422 8 0.0000000000000000e+00 -2.4525569083892691e+02 -6.2102132392639597e+01 7.3691070859223146e+01 0 0 0
829 83 6 0.0000000000000000e+00 -2.3442499851542266e+02 -7.3516764132283370e+01 6.2336291554339653e+01 0 0 0
1354 136 5 0.0000000000000000e+00 -2.4287991954997480e+02 -5.9241961709168720e+01 5.1195953889130045e+01 0 0 0
5129 422 7 0.0000000000000000e+00 -2.2708149746842102e+02 -5.7668606212504862e+01 7.1706443011167167e+01 0 0 0
5020 416 8 0.0000000000000000e+00 -2.5706889029922962e+02 -3.3003319894927870e+01 4.4909676694466505e+01 0 0 0
4070 366 8 0.0000000000000000e+00 -2.6573169024768436e+02 -5.5364461170012362e+01 4.7502206695664128e+01 0 0 0
3327 327 7 0.0000000000000000e+00 -2.9821870779867385e+02 -2.5795504615884141e+01 4.8745943975754088e+01 1 0 0
1015 102 6 0.0000000000000000e+00 -2.6167945447842061e+02 -2.1727779770650290e+01 4.4854807568695698e+01 1 0 0
1016 102 6 0.0000000000000000e+00 -2.7056530755838173e+02 -2.4131256106931126e+01 4.6383461029215006e+01 1 0 0
4663 397 9 0.0000000000000000e+00 -2.9299144867574785e+02 -2.7365090273179629e+01 8.5355316928681944e+01 0 0 0
4069 366 8 0.0000000000000000e+00 -2.6448490134105469e+02 -4.5150070326010479e+01 4.8567289087176654e+01 0 0 0
1480 148 5 0.0000000000000000e+00 -2.9060771333992335e+02 -5.2820943950485002e+01 4.6792400107433089e+01 1 0 0
4068 366 7 0.0000000000000000e+00 -2.6455643617428774e+02 -5.1239226824936985e+01 5.6338365029949429e+01 0 0 0
4662 397 8 0.0000000000000000e+00 -2.8471491029374045e+02 -2.9737991938488165e+01 7.9453653162575236e+01 0 0 0