LAMMPS data file via write_data, version 5 Jun 2019, timestep = 310000000

5660 atoms
11 atom types
5926 bonds
7 bond types
4660 angles
4 angle types

-3.0000000000000000e+02 3.0000000000000000e+02 xlo xhi
-3.0000000000000000e+02 3.0000000000000000e+02 ylo yhi
0.0000000000000000e+00 3.0000000000000000e+02 zlo zhi

Masses

1 1000
2 450
3 450
4 11000
5 7000
6 450
7 450
8 450
9 450
10 450
11 20000

Pair Coeffs # lj/cut

1 0.24 10
2 0.24 10
3 0.24 10
4 0.24 10
5 0.24 10
6 0.24 10
7 0.24 10
8 0.24 10
9 0.24 10
10 0.24 10
11 0.24 30

Angle Coeffs # cosine

1 1
2 1
3 1
4 1

Atoms # full

268 27 2 0.0000000000000000e+00 -2.8211938356716911e+02 -1.8314896497046621e+02 3.4270851129323525e+01 0 0 0
269 27 2 0.0000000000000000e+00 -2.8693008558243292e+02 -1.8576217514816005e+02 4.2447133600368389e+01 0 0 0
265 27 2 0.0000000000000000e+00 -2.7626141040035316e+02 -1.6258774753345963e+02 2.9125057848765408e+01 0 0 0
264 27 3 0.0000000000000000e+00 -2.7741408662541448e+02 -1.5492858840413913e+02 2.3387416008115661e+01 0 0 0
821 83 4 0.0000000000000000e+00 -2.7603547162253153e+02 -1.4822089856618211e+02 3.2414092600996455e+01 0 0 0
266 27 2 0.0000000000000000e+00 -2.7723789705418972e+02 -1.6882647957353390e+02 2.1755662400538991e+01 0 0 0
1351 136 4 0.0000000000000000e+00 -2.8323193020385213e+02 -1.7264532181589263e+02 3.7914381825733635e+01 0 0 0
263 27 2 0.0000000000000000e+00 -2.8145779163989073e+02 -1.5971217963979836e+02 1.5745313931940535e+01 0 0 0
261 27 1 0.0000000000000000e+00 -2.8290043203758052e+02 -1.6934769041731357e+02 5.0072700000000001e+00 0 0 0
262 27 2 0.0000000000000000e+00 -2.8545701152105272e+02 -1.6914162588849419e+02 1.4781636247690734e+01 0 0 0
267 27 3 0.0000000000000000e+00 -2.7918620027344031e+02 -1.7588161847556034e+02 2.8336552606933967e+01 0 0 0
669 67 2 0.0000000000000000e+00 -2.9328948554077277e+02 -1.4207862560542708e+02 1.0854069578420363e+01 1 0 0
1352 136 6 0.0000000000000000e+00 -2.7589338658460088e+02 -1.6807235509198358e+02 4.2602561649117966e+01 0 0 0
3408 331 8 0.0000000000000000e+00 -2.6559844387350887e+02 -1.4467426638153253e+02 3.4530735259998188e+01 0 0 0
3409 331 9 0.0000000000000000e+00 -2.5774689224971661e+02 -1.4134370015648003e+02 2.9336828564813242e+01 0 0 0
5137 422 8 0.0000000000000000e+00 -2.6637255826809411e+02 -1.5497340066778472e+02 4.1217216484616770e+01 0 0 0
670 67 3 0.0000000000000000e+00 -2.9442675477879055e+02 -1.5166070899227930e+02 1.3323990606502205e+01 1 0 0
822 83 6 0.0000000000000000e+00 -2.7157840848939776e+02 -1.4047418680654877e+02 2.8066149482915204e+01 0 0 0
5625 489 10 0.0000000000000000e+00 -2.4999407613216823e+02 -1.4714029864715101e+02 3.4601076521913726e+01 0 0 0
3407 331 8 0.0000000000000000e+00 -2.7099307234214126e+02 -1.3678884696171295e+02 3.7634076624072357e+01 0 0 0
976 98 6 0.0000000000000000e+00 -2.8213271188732631e+02 -1.3696934972457254e+02 3.7978435640246019e+01 0 0 0
823 83 6 0.0000000000000000e+00 -2.6777282553858390e+02 -1.3173945484622865e+02 2.5343399623979135e+01 0 0 0
824 83 5 0.0000000000000000e+00 -2.6378681025711450e+02 -1.2707629778562828e+02 3.2396496451788806e+01 0 0 0
1964 197 5 0.0000000000000000e+00 -2.9335279460294566e+02 -1.1979646621012067e+02 3.0340295040447550e+01 0 0 0
1965 197 6 0.0000000000000000e+00 -2.8733088379523548e+02 -1.1215473895421334e+02 3.3900140117119733e+01 0 0 0
1966 197 6 0.0000000000000000e+00 -2.7742916301035473e+02 -1.1019421264989656e+02 3.2556345248426084e+01 0 0 0
1967 197 5 0.0000000000000000e+00 -2.7519310154854105e+02 -1.0927314550931989e+02 4.2149680853483979e+01 0 0 0
830 83 5 0.0000000000000000e+00 -2.5819689517143826e+02 -1.0744034620349015e+02 3.2832761721902934e+01 0 0 0
825 83 6 0.0000000000000000e+00 -2.6253948046881419e+02 -1.1790470579803711e+02 3.5151862700857336e+01 0 0 0
826 83 6 0.0000000000000000e+00 -2.6044924301616300e+02 -1.2029152969038549e+02 2.5685338757896325e+01 0 0 0
975 98 6 0.0000000000000000e+00 -2.9191232017009327e+02 -1.3778668088098271e+02 3.5488028631697865e+01 0 0 0
944 95 5 0.0000000000000000e+00 -2.5866400085335715e+02 -1.0377125824088144e+02 2.3513197478748776e+01 0 0 0
943 95 6 0.0000000000000000e+00 -2.6781250044048130e+02 -1.0060995015674386e+02 2.4716316506282215e+01 0 0 0
977 98 5 0.0000000000000000e+00 -2.7744595422635308e+02 -1.2832095064126798e+02 4.2066483580629125e+01 0 0 0
978 98 6 0.0000000000000000e+00 -2.7213746063349163e+02 -1.1940119302304335e+02 4.2051187895944203e+01 0 0 0
1963 197 6 0.0000000000000000e+00 -2.9910662624337772e+02 -1.2752472856256628e+02 3.1761170798240943e+01 0 0 0
3404 331 8 0.0000000000000000e+00 -2.5678754427360343e+02 -1.3216204929025062e+02 3.7135354683728252e+01 0 0 0
827 83 5 0.0000000000000000e+00 -2.5375784428476683e+02 -1.2178145063718823e+02 1.8835444938403786e+01 0 0 0
829 83 6 0.0000000000000000e+00 -2.4934615753341788e+02 -1.0893124998107787e+02 2.8422066730192682e+01 0 0 0
828 83 6 0.0000000000000000e+00 -2.4865750690200409e+02 -1.1368918861103057e+02 2.0077587489436887e+01 0 0 0
3403 331 7 0.0000000000000000e+00 -2.5031641060240639e+02 -1.2517260497116217e+02 3.7285155724644241e+01 0 0 0
3402 331 8 0.0000000000000000e+00 -2.4708085467833794e+02 -1.2120659313621366e+02 2.8931936450796641e+01 0 0 0
3401 331 8 0.0000000000000000e+00 -2.3917722784469680e+02 -1.1607956349228691e+02 2.5643874703679884e+01 0 0 0
3400 331 7 0.0000000000000000e+00 -2.3604925771880909e+02 -1.1073910884535468e+02 3.3231303878880404e+01 0 0 0
3399 331 8 0.0000000000000000e+00 -2.2744877229380396e+02 -1.1597636429142855e+02 3.5785614604265547e+01 0 0 0
3398 331 8 0.0000000000000000e+00 -2.1869198171778984e+02 -1.1267209162963142e+02 3.1510047046049813e+01 0 0 0
1900 190 5 0.0000000000000000e+00 -2.4310177968575010e+02 -1.3076636793529428e+02 4.2473846442489204e+01 0 0 0
1897 190 5 0.0000000000000000e+00 -2.4493115738339583e+02 -1.0892165485901299e+02 3.9669486854871195e+01 0 0 0
1898 190 6 0.0000000000000000e+00 -2.4323408768048944e+02 -1.1819879736247952e+02 3.8091958358204032e+01 0 0 0
1899 190 6 0.0000000000000000e+00 -2.3838783301165725e+02 -1.2635829783274619e+02 3.4394042345849101e+01 0 0 0
942 95 6 0.0000000000000000e+00 -2.7613976066806504e+02 -9.5603265017098522e+01 2.3170092750141389e+01 0 0 0
3074 308 5 0.0000000000000000e+00 -2.9504747703948891e+02 -6.9768858386401703e+01 3.7165105432996533e+01 0 0 0
941 95 4 0.0000000000000000e+00 -2.8337522210117913e+02 -8.9415253685866389e+01 2.4242469736206967e+01 0 0 0
752 76 2 0.0000000000000000e+00 -2.6320109172666292e+02 -7.5002852817044086e+01 1.1672822510414285e+01 0 0 0
586 59 2 0.0000000000000000e+00 -2.9559821481516980e+02 -8.8311697393972992e+01 3.0734569186462704e+01 0 0 0
755 76 2 0.0000000000000000e+00 -2.6670137309325781e+02 -8.5137303089604870e+01 2.9471233580486285e+01 0 0 0
754 76 3 0.0000000000000000e+00 -2.7353785777392017e+02 -8.3541596904037860e+01 2.2605556656737981e+01 0 0 0
753 76 2 0.0000000000000000e+00 -2.6555444400174781e+02 -8.2403839635417782e+01 1.7717048470978636e+01 0 0 0
583 59 2 0.0000000000000000e+00 -2.7952854883922208e+02 -7.4236786733927758e+01 1.5319012280789527e+01 0 0 0
584 59 3 0.0000000000000000e+00 -2.8468491043797536e+02 -7.3697752601855356e+01 2.4046515163462232e+01 0 0 0
585 59 2 0.0000000000000000e+00 -2.8973145492050662e+02 -8.0637751438156187e+01 2.8502660660308067e+01 0 0 0
3075 308 6 0.0000000000000000e+00 -2.8789271064604861e+02 -6.5390965825123857e+01 3.2010417403813989e+01 0 0 0
2241 225 4 0.0000000000000000e+00 -2.6096117169256314e+02 -7.1418530719017184e+01 3.1725576519560814e+01 0 0 0
756 76 2 0.0000000000000000e+00 -2.6503800232450692e+02 -8.4879274242012286e+01 4.0043644788247171e+01 0 0 0
1800 180 5 0.0000000000000000e+00 -2.9507077893352613e+02 -7.2610709346173394e+01 9.4353788707925599e+00 1 0 0
760 76 3 0.0000000000000000e+00 -2.7207614114926406e+02 -7.1413969927290665e+01 3.4362180773263574e+01 0 0 0
751 76 1 0.0000000000000000e+00 -2.7039321880215715e+02 -7.9557596017118044e+01 6.8810700000000002e+00 0 0 0
759 76 2 0.0000000000000000e+00 -2.8100035175241038e+02 -6.9860476241594853e+01 3.7839139665388004e+01 0 0 0
582 59 2 0.0000000000000000e+00 -2.8217166164746436e+02 -6.8821713119416813e+01 7.6858463004262356e+00 0 0 0
3077 308 5 0.0000000000000000e+00 -2.7106095107951671e+02 -6.2234331595948056e+01 2.6249311306773226e+01 0 0 0
581 59 1 0.0000000000000000e+00 -2.7247607893055732e+02 -6.9231714132652698e+01 5.1065800000000001e+00 0 0 0
4066 366 8 0.0000000000000000e+00 -2.6860874715447250e+02 -7.1896938241417303e+01 1.9621151958355576e+01 0 0 0
4067 366 8 0.0000000000000000e+00 -2.5878851408731265e+02 -7.3984757002442663e+01 1.9755861123750755e+01 0 0 0
4455 387 7 0.0000000000000000e+00 -2.9814066926005194e+02 -6.1794422796606618e+01 7.2817402088127281e+00 1 0 0
4065 366 7 0.0000000000000000e+00 -2.6820832820806635e+02 -6.2165052116008852e+01 1.5526307020100887e+01 0 0 0
4064 366 8 0.0000000000000000e+00 -2.6098733253793586e+02 -6.3615312046755854e+01 2.2449797902185590e+01 0 0 0
3078 308 6 0.0000000000000000e+00 -2.7066611297775995e+02 -6.0921296348506118e+01 3.6282739889417471e+01 0 0 0
2773 278 6 0.0000000000000000e+00 -2.6213540720043522e+02 -6.1056829408606291e+01 3.8490270564335937e+01 0 0 0
4456 387 8 0.0000000000000000e+00 -2.9504787991753369e+02 -6.1440199329358165e+01 1.6598722196640743e+01 1 0 0
945 95 6 0.0000000000000000e+00 -2.5066576171307204e+02 -9.7674232887252145e+01 2.4432588795806833e+01 0 0 0
4068 366 7 0.0000000000000000e+00 -2.5300200581763244e+02 -6.8544580956072650e+01 2.5795649541344034e+01 0 0 0
2243 225 6 0.0000000000000000e+00 -2.5254972009896395e+02 -8.3698332389085664e+01 4.0107899405426402e+01 0 0 0
2242 225 6 0.0000000000000000e+00 -2.5224739128707154e+02 -7.3879138899393695e+01 3.5828769971014921e+01 0 0 0
1895 190 6 0.0000000000000000e+00 -2.4519114560836479e+02 -8.9782520019527439e+01 3.5973950472244049e+01 0 0 0
950 95 5 0.0000000000000000e+00 -2.1697580587884448e+02 -8.2348723333134060e+01 1.0997198564009864e+01 0 0 0
4069 366 8 0.0000000000000000e+00 -2.4531473762020059e+02 -6.5625745116764236e+01 3.2027153547504192e+01 0 0 0
946 95 6 0.0000000000000000e+00 -2.5066375397374782e+02 -8.8060009254780724e+01 2.4019848436799762e+01 0 0 0
947 95 5 0.0000000000000000e+00 -2.4110643233258230e+02 -8.7025945014381861e+01 2.0447504825297791e+01 0 0 0
1894 190 5 0.0000000000000000e+00 -2.3742557266529528e+02 -8.3124468427598956e+01 3.6423074152316055e+01 0 0 0
1893 190 6 0.0000000000000000e+00 -2.3084112407475385e+02 -7.6213804850122102e+01 3.3169240599326756e+01 0 0 0
948 95 6 0.0000000000000000e+00 -2.3291071787926913e+02 -8.2415150859361646e+01 1.6377371578402563e+01 0 0 0
1892 190 6 0.0000000000000000e+00 -2.2356737732936648e+02 -7.1005994510734226e+01 2.9148229242743280e+01 0 0 0
1891 190 4 0.0000000000000000e+00 -2.2167117659251798e+02 -6.1479312000679833e+01 2.7617398606000755e+01 0 0 0
949 95 6 0.0000000000000000e+00 -2.2350935560474392e+02 -7.9564516723635464e+01 1.8092644523679940e+01 0 0 0
191 20 1 0.0000000000000000e+00 -2.2696191478178179e+02 -6.3730432130855725e+01 5.0072700000000001e+00 0 0 0
1896 190 6 0.0000000000000000e+00 -2.4594771868240647e+02 -9.9542676147557302e+01 3.7534692866567198e+01 0 0 0
4070 366 8 0.0000000000000000e+00 -2.3710701430489246e+02 -6.8044129153783516e+01 3.6767960919046551e+01 0 0 0
2244 225 5 0.0000000000000000e+00 -2.5256949329669916e+02 -9.3541188092413535e+01 4.1112262247547648e+01 0 0 0
3076 308 6 0.0000000000000000e+00 -2.7916007661934015e+02 -5.9735359582041298e+01 3.1017519046650573e+01 0 0 0
4457 387 8 0.0000000000000000e+00 -2.9398619115369303e+02 -5.6012816502404839e+01 2.5716543414958828e+01 1 0 0
810 81 5 0.0000000000000000e+00 -2.8365097825723274e+02 -5.2634154922878416e+01 2.4718673209507685e+01 0 0 0
809 81 6 0.0000000000000000e+00 -2.7517205650151539e+02 -5.1971775706540861e+01 2.0623184612747615e+01 0 0 0
804 81 5 0.0000000000000000e+00 -2.7446706716490650e+02 -4.0452398797443259e+01 3.5243396615793891e+01 0 0 0
784 79 3 0.0000000000000000e+00 -2.8662510399707332e+02 -3.1288118472490929e+01 2.9205431383125713e+01 1 0 0
808 81 6 0.0000000000000000e+00 -2.7306895846673604e+02 -4.3569702837292475e+01 1.5804491825037342e+01 0 0 0
806 81 6 0.0000000000000000e+00 -2.7117781134251840e+02 -3.7264223816688066e+01 2.2926411522347266e+01 0 0 0
803 81 6 0.0000000000000000e+00 -2.8066323248632540e+02 -4.7260996011363190e+01 3.4932058630297760e+01 0 0 0
805 81 6 0.0000000000000000e+00 -2.6797419778005354e+02 -4.4506108652052681e+01 2.9178877209939348e+01 0 0 0
785 79 2 0.0000000000000000e+00 -2.8914689847111015e+02 -2.1611734164655179e+01 2.9410733529486951e+01 1 0 0
1691 170 4 0.0000000000000000e+00 -2.9068854566915974e+02 -3.6601277164709749e+01 3.7951867324357814e+01 0 0 0
71 8 1 0.0000000000000000e+00 -2.9826375199968658e+02 -2.2294994544297918e+01 6.2303600000000001e+00 1 0 0
807 81 5 0.0000000000000000e+00 -2.6611770563479092e+02 -3.6120039943627383e+01 1.4641773811044743e+01 0 0 0
802 81 6 0.0000000000000000e+00 -2.9070134826070694e+02 -4.7344296061462138e+01 3.5293254663105344e+01 0 0 0
4063 366 8 0.0000000000000000e+00 -2.6412207077262877e+02 -5.4322749393760951e+01 2.4823345432722302e+01 0 0 0
786 79 2 0.0000000000000000e+00 -2.9403066121768467e+02 -2.0117978351416575e+01 3.7629845983869536e+01 1 0 0
4062 366 7 0.0000000000000000e+00 -2.6440824783442048e+02 -4.4945356132374279e+01 2.0866374592996543e+01 0 0 0
4061 366 8 0.0000000000000000e+00 -2.5830716945228636e+02 -3.9839680241609024e+01 2.7150261047193883e+01 0 0 0
2775 278 6 0.0000000000000000e+00 -2.5731279455184546e+02 -4.9003182290634399e+01 3.3275688929492745e+01 0 0 0
783 79 2 0.0000000000000000e+00 -2.9280488635323422e+02 -3.0352900455978222e+01 2.1166195201827005e+01 1 0 0
80 8 3 0.0000000000000000e+00 -2.9862906915786584e+02 -3.4907125670403744e+01 3.0915196212372354e+01 1 0 0
801 81 4 0.0000000000000000e+00 -2.9981577163657886e+02 -5.1001593150751425e+01 3.3357861644312514e+01 0 0 0
782 79 2 0.0000000000000000e+00 -2.9994932955304176e+02 -3.1640239846303430e+01 1.3524840300999756e+01 1 0 0
4060 366 8 0.0000000000000000e+00 -2.5373102387868437e+02 -3.4275443678414597e+01 3.3447771752725977e+01 0 0 0
2774 278 5 0.0000000000000000e+00 -2.5601843109199825e+02 -5.8383824682383342e+01 3.0994207016667730e+01 0 0 0
763 77 2 0.0000000000000000e+00 -2.2014922471474847e+02 -4.6845981983931637e+01 1.9640987689391743e+01 0 0 0
2776 278 6 0.0000000000000000e+00 -2.4812349234440128e+02 -5.1509741838870042e+01 3.5622307368612326e+01 0 0 0
2777 278 5 0.0000000000000000e+00 -2.4029004662821296e+02 -5.6345469216473127e+01 3.9940737779860683e+01 0 0 0
764 77 3 0.0000000000000000e+00 -2.2267999396635466e+02 -5.0335290721187171e+01 2.8555948942845408e+01 0 0 0
765 77 2 0.0000000000000000e+00 -2.2992219385679030e+02 -4.5095542686181709e+01 3.2521616518903187e+01 0 0 0
3696 347 8 0.0000000000000000e+00 -2.1794961164633824e+02 -2.6555028039060208e+01 7.6080037583427105e+00 1 0 0
192 20 2 0.0000000000000000e+00 -2.3362219433162653e+02 -5.6865822927522657e+01 7.9978663855286563e+00 0 0 0
3697 347 8 0.0000000000000000e+00 -2.1987618283083512e+02 -2.8210756386965226e+01 1.7764920515415426e+01 1 0 0
193 20 2 0.0000000000000000e+00 -2.3361365835221389e+02 -4.7232065988671813e+01 1.0887743883834963e+01 0 0 0
194 20 3 0.0000000000000000e+00 -2.4195478633717025e+02 -4.1803794399308501e+01 1.2432414392846516e+01 0 0 0
195 20 2 0.0000000000000000e+00 -2.4350564783462818e+02 -3.4092841152506175e+01 1.8591847849847426e+01 0 0 0
766 77 2 0.0000000000000000e+00 -2.3433021037900664e+02 -4.5552598725721680e+01 4.1771635839489797e+01 0 0 0
762 77 2 0.0000000000000000e+00 -2.1959177956192465e+02 -4.4537074809914479e+01 1.0049045599341826e+01 0 0 0
5561 467 10 0.0000000000000000e+00 -2.3731171460220867e+02 -2.8330654717407377e+01 2.7936808844183528e+01 0 0 0
761 77 1 0.0000000000000000e+00 -2.1618621595837786e+02 -5.2758550266618656e+01 5.0072700000000001e+00 0 0 0
4796 404 9 0.0000000000000000e+00 -2.4170277445219932e+02 -3.4175735082444000e+01 3.5942205411388130e+01 0 0 0
5560 467 11 0.0000000000000000e+00 -2.4222546517086448e+02 -2.2223370455350359e+01 3.3358597019670142e+01 0 0 0
196 20 2 0.0000000000000000e+00 -2.4636573760026948e+02 -2.4926043368273064e+01 2.1529009755992877e+01 0 0 0
4792 404 8 0.0000000000000000e+00 -2.2045570647915966e+02 -3.9254357920077382e+01 3.3544922136805660e+01 0 0 0
4793 404 7 0.0000000000000000e+00 -2.2496265782909614e+02 -4.0430725282808652e+01 4.2649367426700572e+01 0 0 0
2553 256 6 0.0000000000000000e+00 -2.5280024237050753e+02 -2.1200356119921402e+01 4.2095020428004062e+01 0 0 0
3695 347 7 0.0000000000000000e+00 -2.2026087757764975e+02 -1.7379448914676338e+01 1.0368518535573614e+01 1 0 0
2552 256 6 0.0000000000000000e+00 -2.5213821923120173e+02 -1.3854073113397382e+01 3.5697934173473570e+01 0 0 0
197 20 3 0.0000000000000000e+00 -2.4706855050035415e+02 -1.5523238378055815e+01 2.3950948822357255e+01 0 0 0
2551 256 4 0.0000000000000000e+00 -2.5346360927754537e+02 -6.9656848942159364e+00 2.7661371487496105e+01 0 0 0
4434 385 8 0.0000000000000000e+00 -2.2444918504235156e+02 1.5343814267102511e+00 3.3330327785163092e+01 0 0 0
4435 385 9 0.0000000000000000e+00 -2.2482270198946819e+02 1.0157420556359655e+01 2.8700640091848104e+01 0 0 0
198 20 2 0.0000000000000000e+00 -2.4162094219919589e+02 -1.0102319754244098e+01 3.1014066569340716e+01 0 0 0
4433 385 8 0.0000000000000000e+00 -2.2220783485207204e+02 -2.4235613154703639e+00 4.2540757926274154e+01 0 0 0
199 20 2 0.0000000000000000e+00 -2.4399211141875583e+02 -3.6954305571381645e+00 3.8209394018306327e+01 0 0 0
739 74 2 0.0000000000000000e+00 -2.1523334496470810e+02 8.8617674717805315e+00 1.3262282900983884e+01 0 0 0
740 74 3 0.0000000000000000e+00 -2.1571367785583541e+02 8.8097018959386180e+00 3.1051399901127690e+00 0 0 0
270 27 3 0.0000000000000000e+00 -2.9070316254950956e+02 -1.9496266243062124e+02 4.4395369317285727e+01 0 0 0
5138 422 9 0.0000000000000000e+00 -2.6458480727179835e+02 -1.6399112826853488e+02 4.3934842355317294e+01 0 0 0
5136 422 8 0.0000000000000000e+00 -2.7212724760811284e+02 -1.4909859726415544e+02 4.6556668244712242e+01 0 0 0
1353 136 6 0.0000000000000000e+00 -2.7655764209804727e+02 -1.5854754656436222e+02 4.4569288088948397e+01 0 0 0
1354 136 5 0.0000000000000000e+00 -2.8270644674789384e+02 -1.5204234947900082e+02 4.9431271909112041e+01 0 0 0
5135 422 7 0.0000000000000000e+00 -2.7661854298819890e+02 -1.4441295007144876e+02 5.4380114580618631e+01 0 0 0
1355 136 6 0.0000000000000000e+00 -2.9230151865567512e+02 -1.5460681582043708e+02 4.8448286766844348e+01 0 0 0
5627 489 10 0.0000000000000000e+00 -2.5677875799867616e+02 -1.5723027788604455e+02 4.9554636125750079e+01 0 0 0
1356 136 6 0.0000000000000000e+00 -2.9907474037193708e+02 -1.4873061442105956e+02 4.4084793022267043e+01 0 0 0
1357 136 5 0.0000000000000000e+00 -2.9982064608513934e+02 -1.4008339092951891e+02 4.8633731548922782e+01 0 0 0
5626 489 11 0.0000000000000000e+00 -2.5223850209362124e+02 -1.5093606583103389e+02 4.3513004609792233e+01 0 0 0
1969 197 6 0.0000000000000000e+00 -2.9339428180789730e+02 -1.0561070951168571e+02 4.3167035972482829e+01 0 0 0
3405 331 8 0.0000000000000000e+00 -2.6378814659397204e+02 -1.3244193916422023e+02 4.4966449263043856e+01 0 0 0
1968 197 6 0.0000000000000000e+00 -2.8425500219577049e+02 -1.0788448972287027e+02 4.6221757780185456e+01 0 0 0
5134 422 8 0.0000000000000000e+00 -2.8032748411497283e+02 -1.3849786088932743e+02 6.0692804664290591e+01 0 0 0
5133 422 8 0.0000000000000000e+00 -2.7323946524022028e+02 -1.3155914072819709e+02 5.9433501403010993e+01 0 0 0
979 98 6 0.0000000000000000e+00 -2.6323655495177707e+02 -1.1603153424852496e+02 4.5791727325171117e+01 0 0 0
5129 422 7 0.0000000000000000e+00 -2.7042148674063424e+02 -1.0578314046170145e+02 5.3786656301367181e+01 0 0 0
3406 331 7 0.0000000000000000e+00 -2.7167312807668111e+02 -1.3673125235093323e+02 4.7253612637729077e+01 0 0 0
1970 197 5 0.0000000000000000e+00 -2.9186928114363997e+02 -1.1483977076623412e+02 4.4435920079079260e+01 0 0 0
4646 397 8 0.0000000000000000e+00 -2.8141931120256402e+02 -1.1319096020043129e+02 5.4640401757933247e+01 0 0 0
5131 422 8 0.0000000000000000e+00 -2.7124605559819247e+02 -1.2481473115553823e+02 5.2182323271369427e+01 0 0 0
1360 136 5 0.0000000000000000e+00 -2.8767835921493804e+02 -1.3253532772764152e+02 5.6368730700294869e+01 0 0 0
5132 422 7 0.0000000000000000e+00 -2.6438689829520558e+02 -1.2753785403334929e+02 5.8789997145638260e+01 0 0 0
4645 397 7 0.0000000000000000e+00 -2.7585953133798751e+02 -1.1770934454846315e+02 6.1584325054822045e+01 0 0 0
4647 397 8 0.0000000000000000e+00 -2.8016634352015762e+02 -1.0307335713080882e+02 5.4277212986702366e+01 0 0 0
5130 422 8 0.0000000000000000e+00 -2.7181382885764964e+02 -1.1508142287713591e+02 5.2953012492145476e+01 0 0 0
4648 397 7 0.0000000000000000e+00 -2.7583474572247547e+02 -1.0745841783898673e+02 6.2155608757210388e+01 0 0 0
4649 397 8 0.0000000000000000e+00 -2.6664948187866656e+02 -1.0789583155567415e+02 6.5716253569252601e+01 0 0 0
1359 136 6 0.0000000000000000e+00 -2.9438370445394594e+02 -1.2524736603826616e+02 5.8480277502734715e+01 0 0 0
5128 422 8 0.0000000000000000e+00 -2.6251066815126234e+02 -1.0105338841819959e+02 5.7233924428125320e+01 0 0 0
2248 225 6 0.0000000000000000e+00 -2.5731747195960099e+02 -1.1588116077245613e+02 6.7931885056080063e+01 0 0 0
2431 244 4 0.0000000000000000e+00 -2.9694912538971130e+02 -1.0154100027799028e+02 5.3544844302344558e+01 0 0 0
1358 136 6 0.0000000000000000e+00 -2.9688951550930364e+02 -1.3012511584296391e+02 4.9840337312734469e+01 0 0 0
2250 225 5 0.0000000000000000e+00 -2.5618389539658341e+02 -1.2492067339553910e+02 5.0497446327341656e+01 0 0 0
2249 225 6 0.0000000000000000e+00 -2.5533070208700019e+02 -1.1922910010704712e+02 5.8844293238562706e+01 0 0 0
980 98 5 0.0000000000000000e+00 -2.5505499635378271e+02 -1.1434463529870642e+02 5.0726992058503384e+01 0 0 0
2247 225 5 0.0000000000000000e+00 -2.5296367771344589e+02 -1.0814911623249560e+02 6.3193266446906179e+01 0 0 0
5120 422 7 0.0000000000000000e+00 -2.4547057330331387e+02 -1.1755213447348197e+02 6.2891594112780183e+01 0 0 0
2245 225 6 0.0000000000000000e+00 -2.5291985660141566e+02 -1.0298812228190663e+02 4.5540491607117666e+01 0 0 0
2246 225 6 0.0000000000000000e+00 -2.4837347699274375e+02 -1.0610824806114930e+02 5.4183447077887813e+01 0 0 0
5121 422 8 0.0000000000000000e+00 -2.4533847121331485e+02 -1.1355091040484096e+02 7.1976694786368384e+01 0 0 0
5122 422 8 0.0000000000000000e+00 -2.4276014176292847e+02 -1.0437618507731470e+02 6.7456593343427429e+01 0 0 0
5123 422 7 0.0000000000000000e+00 -2.3469111022555620e+02 -1.0159218970144367e+02 6.1610508103281632e+01 0 0 0
2772 278 6 0.0000000000000000e+00 -2.5841950731358372e+02 -6.1390181240598608e+01 4.8049495618696881e+01 0 0 0
3079 308 6 0.0000000000000000e+00 -2.7698614819561334e+02 -6.0434481781632883e+01 4.4391683569095996e+01 0 0 0
4650 397 8 0.0000000000000000e+00 -2.6982288453912253e+02 -9.9919551764208251e+01 7.0810649763868284e+01 0 0 0
3080 308 5 0.0000000000000000e+00 -2.8678367629213739e+02 -6.3790914642187623e+01 4.3828195394509272e+01 0 0 0
757 76 3 0.0000000000000000e+00 -2.7261140457762468e+02 -7.8774033811237928e+01 4.3096112199729866e+01 0 0 0
758 76 2 0.0000000000000000e+00 -2.7834051874008946e+02 -7.1778212678298743e+01 4.6732450200302289e+01 0 0 0
5127 422 8 0.0000000000000000e+00 -2.6544893910629855e+02 -9.2662189951475881e+01 5.2828021078668407e+01 0 0 0
2412 242 6 0.0000000000000000e+00 -2.9394941155293731e+02 -8.4249772539242841e+01 4.7221044209973478e+01 0 0 0
2413 242 6 0.0000000000000000e+00 -2.8536396508308076e+02 -8.6167460989967481e+01 5.1985664443943094e+01 0 0 0
2081 209 4 0.0000000000000000e+00 -2.6662929426235843e+02 -6.9981213230010624e+01 4.7078522283287057e+01 0 0 0
2414 242 5 0.0000000000000000e+00 -2.7563731075865485e+02 -8.3320852362728246e+01 5.2752426891218484e+01 0 0 0
2088 209 6 0.0000000000000000e+00 -2.7484792769312901e+02 -7.9943085556819085e+01 6.7078773431224803e+01 0 0 0
2090 209 5 0.0000000000000000e+00 -2.7336883324751602e+02 -9.6432976646020492e+01 5.9649017883612132e+01 0 0 0
2089 209 6 0.0000000000000000e+00 -2.7659826577969352e+02 -8.9918391943453216e+01 6.6809533645267138e+01 0 0 0
2087 209 5 0.0000000000000000e+00 -2.7804542392478083e+02 -7.0685633575648708e+01 6.8677073006394806e+01 0 0 0
2415 242 6 0.0000000000000000e+00 -2.6647132812951253e+02 -7.9917653413252594e+01 5.0127214237086356e+01 0 0 0
4654 397 7 0.0000000000000000e+00 -2.6774047150798509e+02 -6.7361724577535696e+01 7.1054401312976466e+01 0 0 0
4655 397 8 0.0000000000000000e+00 -2.5853609075957985e+02 -6.9455140833640911e+01 6.9458920934003658e+01 0 0 0
4653 397 8 0.0000000000000000e+00 -2.6843861216004979e+02 -7.5687006983581682e+01 7.5049235812873263e+01 0 0 0
4652 397 8 0.0000000000000000e+00 -2.6239185385240802e+02 -8.3520050524792950e+01 7.7761748832247491e+01 0 0 0
4651 397 7 0.0000000000000000e+00 -2.6395443768595487e+02 -9.2465806422444871e+01 7.4895610881524874e+01 0 0 0
2416 242 6 0.0000000000000000e+00 -2.5901293282501575e+02 -7.3903252050585252e+01 5.3931971671964853e+01 0 0 0
2086 209 6 0.0000000000000000e+00 -2.8421141579493519e+02 -6.2702236266627565e+01 6.7830264809060978e+01 0 0 0
1696 170 6 0.0000000000000000e+00 -2.9098975897760272e+02 -6.5098410191916329e+01 5.6818175839235828e+01 0 0 0
2082 209 6 0.0000000000000000e+00 -2.6766438990664591e+02 -6.0249823309270994e+01 4.7424680387165417e+01 0 0 0
5126 422 7 0.0000000000000000e+00 -2.5706171416262168e+02 -8.7692576481032958e+01 5.0527670255882128e+01 0 0 0
2085 209 6 0.0000000000000000e+00 -2.7475126864703037e+02 -6.1460470923216768e+01 6.4063939339543225e+01 0 0 0
4073 366 8 0.0000000000000000e+00 -2.2047884436012151e+02 -6.7213309417612891e+01 4.6801098487826636e+01 0 0 0
4071 366 7 0.0000000000000000e+00 -2.3366652633263530e+02 -7.4771191612938978e+01 4.3416741780647008e+01 0 0 0
4779 404 8 0.0000000000000000e+00 -2.1709003395149799e+02 -8.8337683499431577e+01 6.2313553980788555e+01 0 0 0
4072 366 8 0.0000000000000000e+00 -2.3038004950656043e+02 -6.5608667404287900e+01 4.6862148153209361e+01 0 0 0
4656 397 8 0.0000000000000000e+00 -2.4883581002006051e+02 -7.0595548664991568e+01 7.1942630645871958e+01 0 0 0
5125 422 8 0.0000000000000000e+00 -2.4783498800009298e+02 -8.9944679241754613e+01 5.3974986003359533e+01 0 0 0
5124 422 8 0.0000000000000000e+00 -2.3966399240103982e+02 -9.4162312311634139e+01 5.6776212835554340e+01 0 0 0
4657 397 7 0.0000000000000000e+00 -2.4458835614157871e+02 -7.8929668299753004e+01 6.8004162482148132e+01 0 0 0
2417 242 5 0.0000000000000000e+00 -2.5061422448249843e+02 -7.2911732728925870e+01 5.9405251049758597e+01 0 0 0
2418 242 6 0.0000000000000000e+00 -2.5101224652018647e+02 -6.3721335211190642e+01 5.6673964135259993e+01 0 0 0
4658 397 8 0.0000000000000000e+00 -2.4157160154988730e+02 -7.7467379506489408e+01 5.8557267722831511e+01 0 0 0
4659 397 8 0.0000000000000000e+00 -2.3918347164976979e+02 -6.8676570887058034e+01 6.3424891681189486e+01 0 0 0
4660 397 7 0.0000000000000000e+00 -2.3237250891885358e+02 -6.3224117186316150e+01 6.7444257149154211e+01 0 0 0
4661 397 8 0.0000000000000000e+00 -2.2484105958363244e+02 -6.1771525890689745e+01 6.0528038385570412e+01 0 0 0
4662 397 8 0.0000000000000000e+00 -2.1496374203574999e+02 -6.3858534642140711e+01 6.0422677740107176e+01 0 0 0
5562 468 10 0.0000000000000000e+00 -2.1364330234816038e+02 -7.3310886046678775e+01 5.1472404916584864e+01 0 0 0
3333 327 9 0.0000000000000000e+00 -2.9949837381043795e+02 -4.8137952190666958e+01 6.8463712151743920e+01 1 0 0
1692 170 6 0.0000000000000000e+00 -2.8708450908899988e+02 -4.2750779249233140e+01 4.5127107917277073e+01 0 0 0
4462 387 8 0.0000000000000000e+00 -2.9247568956141799e+02 -5.6609048776592772e+01 6.2692072839720012e+01 1 0 0
790 79 3 0.0000000000000000e+00 -2.9543725080411934e+02 -5.3987908180431162e+01 4.3234587114313790e+01 1 0 0
2084 209 5 0.0000000000000000e+00 -2.6856181423767697e+02 -5.4886058198448957e+01 5.9471327509960453e+01 0 0 0
788 79 2 0.0000000000000000e+00 -2.9373273531013251e+02 -3.5571264070328354e+01 4.7983827432385027e+01 1 0 0
2083 209 6 0.0000000000000000e+00 -2.6962305424049833e+02 -5.1011761174751939e+01 5.0007515874631579e+01 0 0 0
4463 387 8 0.0000000000000000e+00 -2.8637244393388556e+02 -5.1286835980763819e+01 6.7939275704764555e+01 1 0 0
1695 170 6 0.0000000000000000e+00 -2.8465679793101873e+02 -5.7398979742699723e+01 5.7370080006660686e+01 0 0 0
2556 256 6 0.0000000000000000e+00 -2.6497653876605438e+02 -4.1342040973185071e+01 5.2335005036404098e+01 0 0 0
4464 387 7 0.0000000000000000e+00 -2.7803869742245479e+02 -4.7013414160196447e+01 7.0532263916611555e+01 1 0 0
787 79 3 0.0000000000000000e+00 -2.9485146371434917e+02 -2.6232692989781537e+01 4.5776303604989174e+01 1 0 0
1693 170 6 0.0000000000000000e+00 -2.8543172036256414e+02 -4.8263264106394367e+01 5.2562805744201263e+01 0 0 0
1694 170 5 0.0000000000000000e+00 -2.7908012775102458e+02 -4.9087959763253259e+01 5.9921886983285454e+01 0 0 0
4466 387 8 0.0000000000000000e+00 -2.6866328811953827e+02 -3.4285158907874028e+01 7.8293257481479912e+01 1 0 0
4465 387 8 0.0000000000000000e+00 -2.7669460718346193e+02 -4.0712189749255352e+01 7.7818150717905624e+01 1 0 0
4467 387 7 0.0000000000000000e+00 -2.6091397089751661e+02 -3.9087592093464259e+01 7.4505731629164373e+01 1 0 0
2557 256 5 0.0000000000000000e+00 -2.7291749020275296e+02 -3.6892438634799930e+01 5.5886185519299787e+01 0 0 0
4056 366 7 0.0000000000000000e+00 -2.5933851169404016e+02 -5.0501052605702469e+01 6.5994220069545833e+01 0 0 0
2558 256 6 0.0000000000000000e+00 -2.7381659739159636e+02 -2.9855005736445708e+01 6.3546382002293498e+01 0 0 0
789 79 2 0.0000000000000000e+00 -2.9524820090461168e+02 -4.5860428327076683e+01 4.8132977295411500e+01 1 0 0
2559 256 6 0.0000000000000000e+00 -2.6826234109943448e+02 -2.3405588143192652e+01 6.8165571850206518e+01 0 0 0
4057 366 8 0.0000000000000000e+00 -2.5725174131725117e+02 -4.7338148109010895e+01 5.6384439032088778e+01 0 0 0