LAMMPS data file via write_data, version 5 Jun 2019, timestep = 470000000

5660 atoms
11 atom types
5938 bonds
7 bond types
4660 angles
4 angle types

-3.0000000000000000e+02 3.0000000000000000e+02 xlo xhi
-3.0000000000000000e+02 3.0000000000000000e+02 ylo yhi
0.0000000000000000e+00 3.0000000000000000e+02 zlo zhi

Masses

1 1000
2 450
3 450
4 11000
5 7000
6 450
7 450
8 450
9 450
10 450
11 20000

Pair Coeffs # lj/cut

1 0.24 10
2 0.24 10
3 0.24 10
4 0.24 10
5 0.24 10
6 0.24 10
7 0.24 10
8 0.24 10
9 0.24 10
10 0.24 10
11 0.24 30

Angle Coeffs # cosine

1 1
2 1
3 1
4 1

Atoms # full

2076 208 6 0.0000000000000000e+00 -2.9442575430144547e+02 -2.3768325760491462e+02 3.2699290906589276e+01 0 0 0
2077 208 5 0.0000000000000000e+00 -2.9343893557755513e+02 -2.2778646224206483e+02 3.3448990860332856e+01 0 0 0
2075 208 6 0.0000000000000000e+00 -2.8792845278108689e+02 -2.3833459076663823e+02 4.0458646615975312e+01 0 0 0
2078 208 6 0.0000000000000000e+00 -2.9799096360809818e+02 -2.3200281528761076e+02 4.0940208373587666e+01 0 0 0
4342 381 8 0.0000000000000000e+00 -2.7484613166716156e+02 -1.1575337316299414e+02 3.0295885100007062e+01 0 0 0
4341 381 7 0.0000000000000000e+00 -2.8435185300816221e+02 -1.1741499581948263e+02 3.3307720880977556e+01 0 0 0
1822 183 6 0.0000000000000000e+00 -2.7450591701078400e+02 -1.2269414052277314e+02 1.6225145203010285e+01 1 0 0
1821 183 4 0.0000000000000000e+00 -2.6646934144018655e+02 -1.1756835617487299e+02 1.1430684409994747e+01 1 0 0
1000 100 5 0.0000000000000000e+00 -2.7081554273869222e+02 -1.0689880154046286e+02 3.0317315389297178e+01 0 0 0
1823 183 6 0.0000000000000000e+00 -2.8370458724977340e+02 -1.1964273227759243e+02 1.7393620976657203e+01 1 0 0
999 100 6 0.0000000000000000e+00 -2.7469010649178136e+02 -1.0213313479892695e+02 3.7840109108660428e+01 0 0 0
1824 183 5 0.0000000000000000e+00 -2.8282344642084206e+02 -1.1156550885201293e+02 2.3193556023436962e+01 1 0 0
1825 183 6 0.0000000000000000e+00 -2.8054927616416211e+02 -1.0214670884242007e+02 2.0441839893962136e+01 1 0 0
412 42 2 0.0000000000000000e+00 -2.7432225633903954e+02 -9.7494200466797494e+01 6.6567944037756144e+00 1 0 0
411 42 1 0.0000000000000000e+00 -2.7494000285113799e+02 -1.0737547100824071e+02 5.0286200000000001e+00 1 0 0
4353 381 7 0.0000000000000000e+00 -2.6495944578499189e+02 -1.0081588968593341e+02 3.8224424036241324e+01 0 0 0
4358 381 8 0.0000000000000000e+00 -2.9114746987871251e+02 -9.9555883632187474e+01 2.0080618746889055e+01 0 0 0
420 42 3 0.0000000000000000e+00 -2.5679948552926197e+02 -1.1361768850231267e+02 1.5414538033339765e+01 1 0 0
4343 381 8 0.0000000000000000e+00 -2.6521359575021319e+02 -1.1849928788948448e+02 3.0596807890605614e+01 0 0 0
4352 381 8 0.0000000000000000e+00 -2.6562877130570769e+02 -1.1018883889095090e+02 4.0721929708589229e+01 0 0 0
4357 381 8 0.0000000000000000e+00 -2.9022035562343763e+02 -1.0501979808679825e+02 2.8424526119859483e+01 0 0 0
4345 381 8 0.0000000000000000e+00 -2.5955899136466985e+02 -1.2217421263722831e+02 4.1115946913292206e+01 0 0 0
4359 381 9 0.0000000000000000e+00 -2.9023358634339559e+02 -9.5933979796579038e+01 1.1008319592904508e+01 0 0 0
4356 381 7 0.0000000000000000e+00 -2.8183478957544997e+02 -1.0021037034092899e+02 3.0286450979721042e+01 0 0 0
419 42 2 0.0000000000000000e+00 -2.5972394305041013e+02 -1.0945675943134427e+02 6.9341132339894553e+00 1 0 0
998 100 6 0.0000000000000000e+00 -2.8382904067860454e+02 -1.0326907533249792e+02 3.9693569085187029e+01 0 0 0
2069 207 6 0.0000000000000000e+00 -2.9890684575205580e+02 -9.6924534843172879e+01 4.1420517866856166e+01 1 0 0
418 42 2 0.0000000000000000e+00 -2.5528937455189592e+02 -1.0031807635890291e+02 6.4661237163212641e+00 1 0 0
991 100 4 0.0000000000000000e+00 -2.5554314787880423e+02 -9.8096655221150385e+01 2.3394579741693313e+01 0 0 0
4344 381 7 0.0000000000000000e+00 -2.5569209884098635e+02 -1.1618936468235580e+02 3.4497512841917668e+01 0 0 0
2761 277 4 0.0000000000000000e+00 -2.2486818285664924e+02 -1.1590068069636578e+02 3.3116558098458988e+01 0 0 0
194 20 3 0.0000000000000000e+00 -2.3198243376351587e+02 -1.1104939105225381e+02 2.5176338501365123e+01 0 0 0
195 20 2 0.0000000000000000e+00 -2.3725421247951914e+02 -1.1373707233126953e+02 3.3139295363142558e+01 0 0 0
193 20 2 0.0000000000000000e+00 -2.2965723950823013e+02 -1.1414668955822101e+02 1.6175729594171731e+01 0 0 0
192 20 2 0.0000000000000000e+00 -2.2339773855182136e+02 -1.1794346283540283e+02 8.6175055819106881e+00 0 0 0
196 20 2 0.0000000000000000e+00 -2.3891031389099248e+02 -1.0775330964538257e+02 4.0323479787199588e+01 0 0 0
191 20 1 0.0000000000000000e+00 -2.1969433659072249e+02 -1.1017838075045550e+02 5.0072700000000001e+00 0 0 0
2762 277 6 0.0000000000000000e+00 -2.2694230279654369e+02 -1.0746852547958129e+02 3.7529566936707333e+01 0 0 0
1719 172 6 0.0000000000000000e+00 -1.8372817863895227e+02 -1.1160261357371819e+02 2.7985129283785199e+01 0 0 0
1718 172 6 0.0000000000000000e+00 -1.9338273102254550e+02 -1.1154399210229805e+02 2.9814363647006790e+01 0 0 0
1717 172 5 0.0000000000000000e+00 -1.9551842599206083e+02 -1.0356278893704500e+02 3.5205402991976584e+01 0 0 0
1720 172 5 0.0000000000000000e+00 -1.7921903796792739e+02 -1.0257440011200423e+02 2.6799859633884278e+01 0 0 0
5458 439 7 0.0000000000000000e+00 -1.8354741369226909e+02 -1.0049603227121304e+02 3.6978790901409489e+01 0 0 0
1716 172 6 0.0000000000000000e+00 -2.0499638350188511e+02 -1.0227862775000364e+02 3.7278112226039454e+01 0 0 0
5459 439 8 0.0000000000000000e+00 -1.7498425423086508e+02 -9.6210146469445760e+01 3.8601339329349408e+01 0 0 0
4354 381 8 0.0000000000000000e+00 -2.6759249793762297e+02 -9.3487989413926812e+01 3.2518162603917212e+01 0 0 0
417 42 3 0.0000000000000000e+00 -2.6069117056738855e+02 -9.5493744116992218e+01 1.3673855252910707e+01 1 0 0
4355 381 8 0.0000000000000000e+00 -2.7715443586602294e+02 -9.2244685109592268e+01 3.3914986538970808e+01 0 0 0
413 42 2 0.0000000000000000e+00 -2.7137547880712475e+02 -9.1699593632765897e+01 1.4039095068877305e+01 1 0 0
1826 183 6 0.0000000000000000e+00 -2.7755701628533552e+02 -9.2490298961954679e+01 2.2089147124128687e+01 1 0 0
1828 183 6 0.0000000000000000e+00 -2.9061633283732078e+02 -8.0248258020578191e+01 1.6833777466508746e+01 1 0 0
416 42 2 0.0000000000000000e+00 -2.6590043195055000e+02 -9.2526779024662602e+01 2.2323804870872447e+01 1 0 0
1827 183 5 0.0000000000000000e+00 -2.8665446125193722e+02 -8.7661278670640556e+01 2.1841468204488812e+01 1 0 0
1829 183 6 0.0000000000000000e+00 -2.8788122770435365e+02 -8.1668964861791181e+01 7.8270482235781174e+00 1 0 0
2067 207 5 0.0000000000000000e+00 -2.8961253956412776e+02 -9.4670403669531098e+01 3.5317292241664916e+01 1 0 0
1431 144 4 0.0000000000000000e+00 -2.6296293296794914e+02 -7.9265577005900127e+01 7.0730077053776910e+00 0 0 0
1830 183 5 0.0000000000000000e+00 -2.8051843272884423e+02 -8.2179348526234890e+01 1.3500755791462298e+01 1 0 0
2065 207 6 0.0000000000000000e+00 -2.8854153997643886e+02 -7.9427285142089303e+01 2.8788371047723764e+01 1 0 0
2064 207 5 0.0000000000000000e+00 -2.7924435917402383e+02 -7.9789746097387621e+01 3.2949461556029455e+01 1 0 0
4325 380 7 0.0000000000000000e+00 -2.7950643189848222e+02 -6.7939528890588150e+01 3.2725955591708477e+01 1 0 0
4324 380 8 0.0000000000000000e+00 -2.8293325852076430e+02 -7.2078955396714420e+01 2.4615321289249493e+01 1 0 0
1432 144 6 0.0000000000000000e+00 -2.6338707564441057e+02 -7.3015791396785716e+01 1.5025531662668181e+01 0 0 0
4323 380 8 0.0000000000000000e+00 -2.8078436327229866e+02 -6.5853802870899727e+01 1.6828494100595854e+01 1 0 0
4322 380 7 0.0000000000000000e+00 -2.7232298766037815e+02 -6.4328245506828651e+01 1.1147311091820798e+01 1 0 0
414 42 3 0.0000000000000000e+00 -2.6871649413642831e+02 -8.3007993213260207e+01 1.5818815717698801e+01 1 0 0
1433 144 6 0.0000000000000000e+00 -2.6597063770449887e+02 -6.5097024576065934e+01 2.0153200850579790e+01 0 0 0
415 42 2 0.0000000000000000e+00 -2.6833118679074818e+02 -8.3696037891702687e+01 2.5713552712163089e+01 1 0 0
4326 380 8 0.0000000000000000e+00 -2.7124864676113390e+02 -6.2739682502651881e+01 3.2579888043043475e+01 1 0 0
2066 207 6 0.0000000000000000e+00 -2.9487515071142468e+02 -8.7219859037601907e+01 2.9913872052959533e+01 1 0 0
4327 380 8 0.0000000000000000e+00 -2.6210353756987604e+02 -5.9806082920712193e+01 3.5377927752417591e+01 1 0 0
993 100 6 0.0000000000000000e+00 -2.6012350898315088e+02 -9.0984960347604627e+01 4.0072844302835570e+01 0 0 0
1434 144 5 0.0000000000000000e+00 -2.6841225481746750e+02 -5.5504836481521799e+01 1.9161674578128508e+01 0 0 0
2063 207 6 0.0000000000000000e+00 -2.7977700860710934e+02 -8.3014865062773978e+01 4.2742676983835672e+01 1 0 0
992 100 6 0.0000000000000000e+00 -2.5730191237815916e+02 -9.0243701583220172e+01 3.0464972174140858e+01 0 0 0
1014 102 5 0.0000000000000000e+00 -2.3280471990857365e+02 -7.6658424245853027e+01 2.3363018759638994e+01 1 0 0
1013 102 6 0.0000000000000000e+00 -2.3399531611246022e+02 -7.2722272759532430e+01 1.4644979786690048e+01 1 0 0
1012 102 6 0.0000000000000000e+00 -2.3519990305169995e+02 -6.2933918681367714e+01 1.4083325819135849e+01 1 0 0
381 39 1 0.0000000000000000e+00 -2.2383365643900234e+02 -6.6645180698020567e+01 5.0285799999999998e+00 0 0 0
382 39 2 0.0000000000000000e+00 -2.1924457246718617e+02 -7.1642039906256002e+01 1.2515901361234501e+01 0 0 0
1015 102 6 0.0000000000000000e+00 -2.3159818248278253e+02 -6.7671621694758599e+01 2.8456911490695699e+01 1 0 0
1016 102 6 0.0000000000000000e+00 -2.3199411939891354e+02 -6.0674702930731307e+01 3.4586996091464059e+01 1 0 0
1018 102 6 0.0000000000000000e+00 -2.4283028319272933e+02 -5.7382716502202534e+01 4.1054632987979481e+01 1 0 0
383 39 2 0.0000000000000000e+00 -2.2318866719379199e+02 -6.4471130996308744e+01 1.8849425905801645e+01 0 0 0
764 77 3 0.0000000000000000e+00 -2.2036788323220429e+02 -5.8728720391774992e+01 2.6173570931318604e+01 0 0 0
765 77 2 0.0000000000000000e+00 -2.2131364966572391e+02 -5.7515266316878098e+01 3.6392288758542939e+01 0 0 0
763 77 2 0.0000000000000000e+00 -2.1476397007874891e+02 -5.6158308324015991e+01 1.8083538116155488e+01 0 0 0
384 39 3 0.0000000000000000e+00 -2.2834927556936961e+02 -5.6119811438997850e+01 2.1708564706478189e+01 0 0 0
770 77 3 0.0000000000000000e+00 -2.5332663224367022e+02 -7.3894451922286933e+01 3.9873111340308732e+01 0 0 0
1711 172 4 0.0000000000000000e+00 -2.1222058272471469e+02 -6.6436445374265247e+01 2.5152751894866572e+01 0 0 0
20 2 3 0.0000000000000000e+00 -1.7489612553536045e+02 -6.2801994040798270e+01 2.8139323557329533e+01 0 0 0
1712 172 6 0.0000000000000000e+00 -2.0747355852529157e+02 -7.3126051901263850e+01 3.0859099176745278e+01 0 0 0
5443 439 7 0.0000000000000000e+00 -1.8152838749080678e+02 -9.3435772833651228e+01 2.0668105636915662e+01 0 0 0
1713 172 6 0.0000000000000000e+00 -2.0661723974695406e+02 -8.2963259029782677e+01 2.9127135261290068e+01 0 0 0
5453 439 8 0.0000000000000000e+00 -2.0089003444819193e+02 -7.3668804104302737e+01 1.2203984147310377e+01 0 0 0
5454 439 8 0.0000000000000000e+00 -1.9981281015157577e+02 -7.1471381819627169e+01 2.2201589917840341e+01 0 0 0
5457 439 8 0.0000000000000000e+00 -1.9093587338464505e+02 -9.4265474227732611e+01 3.4616062257027252e+01 0 0 0
5456 439 8 0.0000000000000000e+00 -1.9131412313630261e+02 -8.6446891567233322e+01 2.8469174158296155e+01 0 0 0
1714 172 5 0.0000000000000000e+00 -2.0171909247235385e+02 -8.3043423352059776e+01 3.7860972826666256e+01 0 0 0
5450 439 8 0.0000000000000000e+00 -1.8033818364053360e+02 -7.5426234648705474e+01 7.4511495660882767e+00 0 0 0
5451 439 8 0.0000000000000000e+00 -1.8693902613842374e+02 -8.2298767094469966e+01 3.0225285775454709e+00 0 0 0
1879 188 6 0.0000000000000000e+00 -1.8310947702114575e+02 -7.0103289913999077e+01 2.7679984766812865e+01 0 0 0
2531 254 4 0.0000000000000000e+00 -1.7879653997809422e+02 -6.1734210427340720e+01 3.9635146690141632e+01 0 0 0
5452 439 7 0.0000000000000000e+00 -1.9562668036707950e+02 -7.7672870279110953e+01 4.6922340951251149e+00 0 0 0
1880 188 5 0.0000000000000000e+00 -1.8186169555309004e+02 -7.8182996974127875e+01 3.3384893944594971e+01 0 0 0
3771 351 7 0.0000000000000000e+00 -1.8660752404179877e+02 -8.6104485783293299e+01 3.9059753626673448e+01 0 0 0
5455 439 7 0.0000000000000000e+00 -1.9639383500863576e+02 -7.7457572136130324e+01 2.8887452904512546e+01 0 0 0
5444 439 8 0.0000000000000000e+00 -1.7885125206648630e+02 -8.4908259294476096e+01 2.5716724810700967e+01 0 0 0
5445 439 8 0.0000000000000000e+00 -1.8346179824027999e+02 -7.8254043323087444e+01 2.0446463354213336e+01 0 0 0
5446 439 7 0.0000000000000000e+00 -1.7426139913624846e+02 -7.5028489952008911e+01 1.8919405795030453e+01 0 0 0
1878 188 6 0.0000000000000000e+00 -1.8889238403459598e+02 -6.9124542372275329e+01 3.5760735178432789e+01 0 0 0
1877 188 5 0.0000000000000000e+00 -1.9590840365564233e+02 -6.3953697993305667e+01 4.1492215841106628e+01 0 0 0
762 77 2 0.0000000000000000e+00 -2.0999682020869110e+02 -5.5508061751758198e+01 8.9182709258319761e+00 0 0 0
1715 172 6 0.0000000000000000e+00 -2.0064529768847757e+02 -9.3431453675983519e+01 3.8743236700148998e+01 0 0 0
5449 439 7 0.0000000000000000e+00 -1.7027225347627407e+02 -7.4952400095785578e+01 6.0668442128676601e+00 0 0 0
2532 254 6 0.0000000000000000e+00 -1.7169395900225842e+02 -6.9338843311369033e+01 3.9692291118596593e+01 0 0 0
3395 331 8 0.0000000000000000e+00 -2.9753456132880109e+02 -2.5112439148982585e+01 2.2833253786173501e+01 0 0 0
1435 144 6 0.0000000000000000e+00 -2.7283769408261094e+02 -4.8030099435052435e+01 1.4813636394906361e+01 0 0 0
4328 380 7 0.0000000000000000e+00 -2.6225648634703458e+02 -5.2370878383315507e+01 2.8205791344652621e+01 1 0 0
4329 380 8 0.0000000000000000e+00 -2.6205759922775349e+02 -4.4084295636305285e+01 3.3583513964876516e+01 1 0 0
4331 380 7 0.0000000000000000e+00 -2.7969896270064629e+02 -3.7809700897717931e+01 3.7840296421780572e+01 1 0 0
1436 144 6 0.0000000000000000e+00 -2.7806073473842486e+02 -4.0533342362514141e+01 1.8713931577927148e+01 0 0 0
1437 144 5 0.0000000000000000e+00 -2.8178997556429891e+02 -3.9344867981674597e+01 2.7678036791252399e+01 0 0 0
4330 380 8 0.0000000000000000e+00 -2.7038834968248852e+02 -3.8795378994493632e+01 3.4467017156470234e+01 1 0 0
61 7 1 0.0000000000000000e+00 -2.9406224942980941e+02 -1.7232740192567142e+01 5.0072700000000001e+00 1 0 0
2754 276 5 0.0000000000000000e+00 -2.6237747734670108e+02 -2.3308232276686688e+01 1.4686959768330283e+01 0 0 0
580 58 3 0.0000000000000000e+00 -2.7110732334542956e+02 -2.1334036474100174e+01 3.2374417998777112e+01 0 0 0
3154 316 5 0.0000000000000000e+00 -2.8917725207679570e+02 -1.9673703359653828e+01 2.3356524238260917e+01 1 0 0
1438 144 6 0.0000000000000000e+00 -2.9073728327691157e+02 -3.8655575110297391e+01 3.0524870960977470e+01 0 0 0
2753 276 6 0.0000000000000000e+00 -2.6852069602603808e+02 -2.1144278208498609e+01 6.5581420725817408e+00 0 0 0
3155 316 6 0.0000000000000000e+00 -2.9268065135073999e+02 -2.3593193061778656e+01 3.1667615324431420e+01 1 0 0
2758 276 6 0.0000000000000000e+00 -2.6206006900826276e+02 -3.5645456526817661e+01 4.0480404146819041e+01 0 0 0
3394 331 7 0.0000000000000000e+00 -2.8973877318329500e+02 -2.9757450712554487e+01 1.8299041227112166e+01 0 0 0
3393 331 8 0.0000000000000000e+00 -2.9395760051430364e+02 -2.8209300753826454e+01 9.0524703239860305e+00 0 0 0
2752 276 6 0.0000000000000000e+00 -2.7821167543226329e+02 -1.9533650159598320e+01 4.4246710702781913e+00 0 0 0
2756 276 6 0.0000000000000000e+00 -2.5853706221669972e+02 -3.4658472119306246e+01 2.7086537550003779e+01 0 0 0
931 94 4 0.0000000000000000e+00 -2.7139641597302113e+02 -2.7201850575867574e+01 4.1700426195176533e+01 1 0 0
3273 324 7 0.0000000000000000e+00 -2.6721761507649978e+02 -1.4515696602220892e+01 4.0992983793201788e+01 0 0 0
2757 276 5 0.0000000000000000e+00 -2.5631809222898443e+02 -2.9399684216600136e+01 3.4373252261435404e+01 0 0 0
2755 276 6 0.0000000000000000e+00 -2.5617319085583881e+02 -2.8329590923824899e+01 2.0177819605106158e+01 0 0 0
1011 102 4 0.0000000000000000e+00 -2.3862181820896294e+02 -5.3554934174779824e+01 1.5835383134591773e+01 1 0 0
3258 324 7 0.0000000000000000e+00 -2.4970185796190609e+02 -2.1961775177971447e+01 3.1371811403179194e+01 0 0 0
791 80 1 0.0000000000000000e+00 -2.1777059593030216e+02 -1.7045715210992938e+01 5.0286200000000001e+00 0 0 0
385 39 2 0.0000000000000000e+00 -2.3250619968714506e+02 -5.1654928686334522e+01 2.9587819393443393e+01 0 0 0
386 39 2 0.0000000000000000e+00 -2.3796021810181298e+02 -4.7979851295671530e+01 3.6687769041919353e+01 0 0 0
1802 181 6 0.0000000000000000e+00 -2.2332724276549646e+02 -2.9738649032220760e+01 2.6309299627984029e+01 0 0 0
1801 181 4 0.0000000000000000e+00 -2.2010120044727398e+02 -3.5365604658895599e+01 3.3570735232605415e+01 0 0 0
1803 181 6 0.0000000000000000e+00 -2.3028390516327534e+02 -2.4193098294258920e+01 2.2528225286911717e+01 0 0 0
792 80 2 0.0000000000000000e+00 -2.1815532897663263e+02 -1.5336805575009867e+01 1.4921697012203774e+01 0 0 0
2414 242 5 0.0000000000000000e+00 -2.2589871829558558e+02 -3.2785655320433932e+01 4.0907600595961220e+01 0 0 0
676 68 2 0.0000000000000000e+00 -2.1303733089296566e+02 -4.0745375566564704e+01 2.7706823996349229e+01 0 0 0
1804 181 5 0.0000000000000000e+00 -2.3288938158813892e+02 -1.7049317189731983e+01 2.8745488703992901e+01 0 0 0
680 68 3 0.0000000000000000e+00 -2.1683484007085275e+02 -3.9369142327582132e+01 4.2499242439691692e+01 0 0 0
2413 242 6 0.0000000000000000e+00 -2.1918903781019469e+02 -2.5861870884970021e+01 3.9507750964484913e+01 0 0 0
793 80 2 0.0000000000000000e+00 -2.1459392447872341e+02 -2.0356046275400576e+01 2.2973991126328340e+01 0 0 0
761 77 1 0.0000000000000000e+00 -2.0063194331726271e+02 -5.4158868391376110e+01 5.0072700000000001e+00 0 0 0
677 68 3 0.0000000000000000e+00 -2.0893434325582211e+02 -3.4566118850930557e+01 3.4796601597309973e+01 0 0 0
675 68 2 0.0000000000000000e+00 -2.0819749863556663e+02 -3.3520317415799667e+01 2.2808602077212750e+01 0 0 0
799 80 2 0.0000000000000000e+00 -1.8694690468041776e+02 -1.9340813266956864e+01 7.2727407565924418e+00 0 0 0
794 80 3 0.0000000000000000e+00 -2.0649733971638051e+02 -2.3545039916653149e+01 2.7112860834018608e+01 0 0 0
674 68 3 0.0000000000000000e+00 -1.9915676694360241e+02 -3.7247056570945304e+01 2.1834618577688055e+01 0 0 0
1874 188 5 0.0000000000000000e+00 -2.0035791845606173e+02 -4.1535871903622528e+01 3.4988768350325124e+01 0 0 0
1873 188 6 0.0000000000000000e+00 -1.9422967043786826e+02 -3.3578144166327469e+01 3.3280811627668243e+01 0 0 0
672 68 2 0.0000000000000000e+00 -1.8719305024516697e+02 -3.6394142750651802e+01 1.5233569326025398e+01 0 0 0
673 68 2 0.0000000000000000e+00 -1.8975157608197469e+02 -4.0181796206683011e+01 2.4542293579435711e+01 0 0 0
1872 188 6 0.0000000000000000e+00 -1.8882316504697963e+02 -2.8504358900099557e+01 2.5761673420070146e+01 0 0 0
1871 188 4 0.0000000000000000e+00 -1.9371785816953957e+02 -2.5555561251243379e+01 1.7712775264282488e+01 0 0 0
800 80 3 0.0000000000000000e+00 -1.9621112294904626e+02 -2.1622002983241394e+01 7.8795119714515094e+00 0 0 0
2411 242 4 0.0000000000000000e+00 -2.0166902247089627e+02 -2.4870317075469931e+01 3.7072714233706741e+01 0 0 0
671 68 1 0.0000000000000000e+00 -1.8351691830081438e+02 -3.9086752399827674e+01 5.1170700000000000e+00 0 0 0
795 80 2 0.0000000000000000e+00 -1.9894606756405602e+02 -1.8547145249412477e+01 3.0144148756494161e+01 0 0 0
3676 346 7 0.0000000000000000e+00 -1.9025991578476487e+02 -3.9804454408140614e+01 4.0984204892014638e+01 1 0 0
3679 346 7 0.0000000000000000e+00 -1.8146799078329201e+02 -2.7209954972424267e+01 3.2670063876677723e+01 1 0 0
3677 346 8 0.0000000000000000e+00 -1.8461754975329040e+02 -3.6811984978453580e+01 3.2772996202608574e+01 1 0 0
3678 346 8 0.0000000000000000e+00 -1.7511234612443542e+02 -3.4533749167995069e+01 3.1158244420219294e+01 1 0 0
1324 133 5 0.0000000000000000e+00 -1.7347711469059240e+02 -2.4500266975508680e+01 4.0109319305896818e+01 0 0 0
3680 346 8 0.0000000000000000e+00 -1.8990558929623691e+02 -2.3446993644652871e+01 3.6474713134014721e+01 1 0 0
1328 133 6 0.0000000000000000e+00 -1.7907152338255253e+02 -4.1862557162680417e+01 4.1587122902433464e+01 0 0 0
1329 133 6 0.0000000000000000e+00 -1.7117035375296481e+02 -4.8030562865596991e+01 4.1787846191013784e+01 0 0 0
1876 188 6 0.0000000000000000e+00 -1.9937421756062557e+02 -5.4612812487206277e+01 4.2839188661381712e+01 0 0 0
3681 346 8 0.0000000000000000e+00 -1.9296309964958186e+02 -1.6302569083347084e+01 4.2592093441714226e+01 1 0 0
2412 242 6 0.0000000000000000e+00 -2.0986661640918447e+02 -2.3138356777601633e+01 4.2289942192874257e+01 0 0 0
2073 208 6 0.0000000000000000e+00 -2.8275685795728316e+02 -2.2467991870982183e+02 5.1045475745175523e+01 0 0 0
2074 208 5 0.0000000000000000e+00 -2.8925470991339381e+02 -2.3150194094010649e+02 4.7975263529361655e+01 0 0 0
2072 208 6 0.0000000000000000e+00 -2.8145227771754139e+02 -2.1560576771714676e+02 5.3856413140852204e+01 0 0 0
2071 208 4 0.0000000000000000e+00 -2.7353223833842367e+02 -2.0978650171941655e+02 5.7248299218339547e+01 0 0 0
997 100 5 0.0000000000000000e+00 -2.7703505928202480e+02 -1.0961688583590445e+02 4.4349069893110432e+01 0 0 0
996 100 6 0.0000000000000000e+00 -2.6907954750259540e+02 -1.0641990408029564e+02 4.9856748853808398e+01 0 0 0
4349 381 8 0.0000000000000000e+00 -2.7029086463516194e+02 -1.1955040116180379e+02 6.4227435089488651e+01 0 0 0
4350 381 7 0.0000000000000000e+00 -2.7259322552294526e+02 -1.1593396342330669e+02 5.5139035579006183e+01 0 0 0
4348 381 8 0.0000000000000000e+00 -2.6636057668932852e+02 -1.2854959137728946e+02 6.2174573610335152e+01 0 0 0
4347 381 7 0.0000000000000000e+00 -2.6587893362347364e+02 -1.3347935484108470e+02 5.2804888389294206e+01 0 0 0
4351 381 8 0.0000000000000000e+00 -2.6967568791551957e+02 -1.1770020955624470e+02 4.5565528458433448e+01 0 0 0
823 83 6 0.0000000000000000e+00 -2.5936939839850521e+02 -1.1271195052169676e+02 4.9561540110395086e+01 0 0 0
995 100 6 0.0000000000000000e+00 -2.6421904531799873e+02 -9.9617308063445066e+01 5.5222639139787844e+01 0 0 0
4346 381 8 0.0000000000000000e+00 -2.6366114123249656e+02 -1.3049675699151101e+02 4.3642177372162180e+01 0 0 0
822 83 6 0.0000000000000000e+00 -2.5788440410124122e+02 -1.0284924736309389e+02 4.8220916278544173e+01 0 0 0
824 83 5 0.0000000000000000e+00 -2.5588896435589945e+02 -1.1995449199710248e+02 5.6342003769493594e+01 0 0 0
821 83 4 0.0000000000000000e+00 -2.4980604390784106e+02 -1.0621139098902690e+02 4.3956558847173255e+01 0 0 0
2763 277 6 0.0000000000000000e+00 -2.2487359058602752e+02 -1.0787739525976556e+02 4.7185905183033150e+01 0 0 0
825 83 6 0.0000000000000000e+00 -2.5560760514992816e+02 -1.2280267565582625e+02 6.5109669715022051e+01 0 0 0
197 20 3 0.0000000000000000e+00 -2.4061718817842996e+02 -1.0686627184118977e+02 4.9918859884973720e+01 0 0 0
826 83 6 0.0000000000000000e+00 -2.4887590694049004e+02 -1.2168527719836931e+02 7.1796676831349856e+01 0 0 0
827 83 5 0.0000000000000000e+00 -2.3925675134248132e+02 -1.2296363413471246e+02 7.4781295582023546e+01 0 0 0
2764 277 5 0.0000000000000000e+00 -2.2026374990911711e+02 -1.0453081699412401e+02 5.4850301495066368e+01 0 0 0
828 83 6 0.0000000000000000e+00 -2.2982165774193481e+02 -1.2489386965997139e+02 7.1287385058750360e+01 0 0 0
829 83 6 0.0000000000000000e+00 -2.2808509580096970e+02 -1.2967293500151769e+02 7.9631965914747852e+01 0 0 0
198 20 2 0.0000000000000000e+00 -2.3489325772370410e+02 -1.0031804751879829e+02 5.4573348342887279e+01 0 0 0
199 20 2 0.0000000000000000e+00 -2.2719954469636534e+02 -9.5955400626131592e+01 5.9918031877979111e+01 0 0 0
3936 359 8 0.0000000000000000e+00 -2.0900834062668500e+02 -1.0482623258488624e+02 4.7095465356417449e+01 0 0 0
3935 359 7 0.0000000000000000e+00 -2.0444668646278743e+02 -1.1360618724415937e+02 4.7358629340023086e+01 0 0 0
3934 359 8 0.0000000000000000e+00 -1.9820927182763276e+02 -1.2038910681517544e+02 5.2534739813361412e+01 0 0 0
2765 277 6 0.0000000000000000e+00 -2.1129335570543105e+02 -1.0598386291754709e+02 5.7128888453798965e+01 0 0 0
3933 359 8 0.0000000000000000e+00 -1.9462335418901168e+02 -1.1734063557785670e+02 6.1579858668127898e+01 0 0 0
3932 359 7 0.0000000000000000e+00 -1.9525473576157896e+02 -1.0891921376858042e+02 6.7284351946471475e+01 0 0 0
3931 359 8 0.0000000000000000e+00 -2.0140634380190232e+02 -1.0663320616670350e+02 7.5457731287947922e+01 0 0 0
3930 359 8 0.0000000000000000e+00 -1.9978274308489250e+02 -9.9629412855612358e+01 8.2520436562986205e+01 0 0 0
2767 277 5 0.0000000000000000e+00 -1.9357538418996447e+02 -1.0303323275467375e+02 5.9681673045705672e+01 0 0 0
2766 277 6 0.0000000000000000e+00 -2.0185135388280452e+02 -1.0763352696726805e+02 5.6910413620020016e+01 0 0 0
4873 409 7 0.0000000000000000e+00 -1.8346300271315073e+02 -1.0076274930241863e+02 6.4647222324963622e+01 0 0 0
2768 277 6 0.0000000000000000e+00 -1.8865266495202735e+02 -9.6468944827939239e+01 5.4064544932067491e+01 0 0 0
2062 207 6 0.0000000000000000e+00 -2.7369797319561286e+02 -7.5019602733155466e+01 4.5191875573496247e+01 1 0 0
2068 207 6 0.0000000000000000e+00 -2.9284339380718956e+02 -8.9878775636647617e+01 4.3608388774712083e+01 1 0 0
2061 207 4 0.0000000000000000e+00 -2.6395187933250207e+02 -7.4576979738400794e+01 4.2950578788165721e+01 1 0 0
994 100 5 0.0000000000000000e+00 -2.6128754344142413e+02 -9.2367940678938467e+01 4.9685989510781468e+01 0 0 0
1020 102 5 0.0000000000000000e+00 -2.6009352996712317e+02 -6.5348877927683674e+01 4.6561761547518444e+01 1 0 0
4338 380 8 0.0000000000000000e+00 -2.6228792727067440e+02 -6.8513885461508636e+01 5.8304024320351097e+01 1 0 0
4337 380 7 0.0000000000000000e+00 -2.6745417598711464e+02 -6.1123525699418835e+01 5.3799063021675821e+01 1 0 0
4340 380 9 0.0000000000000000e+00 -2.5786720414009773e+02 -6.5187781267725740e+01 7.4807879408247587e+01 1 0 0
4336 380 8 0.0000000000000000e+00 -2.5977216813312293e+02 -5.5080081539759519e+01 5.3043118110823634e+01 1 0 0
1019 102 6 0.0000000000000000e+00 -2.5084750624549258e+02 -6.2640873969807465e+01 4.3343494071498654e+01 1 0 0
769 77 2 0.0000000000000000e+00 -2.4488947869782740e+02 -7.0120244448348217e+01 4.4321505221523715e+01 0 0 0
4339 380 8 0.0000000000000000e+00 -2.5583380263512481e+02 -6.6373322511102970e+01 6.5227152240953458e+01 1 0 0
5561 467 10 0.0000000000000000e+00 -2.3803821179802219e+02 -9.3655909643440211e+01 6.2938511312212363e+01 0 0 0
766 77 2 0.0000000000000000e+00 -2.2145178952804082e+02 -6.4949690357653850e+01 4.3483581340404562e+01 0 0 0
3939 359 8 0.0000000000000000e+00 -2.1968351983578791e+02 -8.1301671772126724e+01 4.5120472528759905e+01 0 0 0
768 77 2 0.0000000000000000e+00 -2.3688091762213389e+02 -7.6077009766000472e+01 4.5684638956374968e+01 0 0 0
767 77 3 0.0000000000000000e+00 -2.2805833088280230e+02 -7.1405861214023190e+01 4.8277048919389109e+01 0 0 0
3940 359 8 0.0000000000000000e+00 -2.2931452467314580e+02 -8.2207038564377584e+01 4.7438210444596272e+01 0 0 0
5559 467 10 0.0000000000000000e+00 -2.4093277750097366e+02 -8.6340688279534618e+01 4.5554883226768311e+01 0 0 0
3941 359 9 0.0000000000000000e+00 -2.3121610025031546e+02 -8.5862618419580642e+01 5.7227682504127692e+01 0 0 0
5560 467 11 0.0000000000000000e+00 -2.4125000021395843e+02 -9.0503024201455091e+01 5.4720759257126183e+01 0 0 0
973 98 6 0.0000000000000000e+00 -2.3767803114347581e+02 -7.8436959795523023e+01 7.9961303677207084e+01 0 0 0
972 98 6 0.0000000000000000e+00 -2.4159673325357559e+02 -7.4621592453452308e+01 7.2505644412467859e+01 0 0 0
1032 104 6 0.0000000000000000e+00 -2.1993985777920545e+02 -6.2703546536438402e+01 5.3133302979309612e+01 0 0 0
971 98 4 0.0000000000000000e+00 -2.5038125876701383e+02 -7.6309567677504589e+01 6.8058184852499323e+01 0 0 0
1033 104 6 0.0000000000000000e+00 -2.1842533498969328e+02 -7.2943532135681039e+01 5.4016324951351528e+01 0 0 0
5578 473 11 0.0000000000000000e+00 -2.5081284268133797e+02 -5.8867265089990219e+01 8.0573811138798987e+01 0 0 0
1031 104 4 0.0000000000000000e+00 -2.2969171588679583e+02 -6.3048132196502934e+01 5.5374378306156487e+01 0 0 0
5329 433 7 0.0000000000000000e+00 -2.2317510630685433e+02 -6.3962260022162127e+01 6.3371986580788231e+01 0 0 0
5330 433 8 0.0000000000000000e+00 -2.2130634165706471e+02 -7.2079326172972912e+01 6.8441540003875204e+01 0 0 0
390 39 3 0.0000000000000000e+00 -2.4430567588531267e+02 -6.7105785246835850e+01 6.4190909968027796e+01 0 0 0
200 20 3 0.0000000000000000e+00 -2.2083542299505646e+02 -9.0986915379294928e+01 6.6401383098509129e+01 0 0 0
5331 433 8 0.0000000000000000e+00 -2.1936471963155401e+02 -7.5360616783268952e+01 7.7590622527757247e+01 0 0 0
1261 127 4 0.0000000000000000e+00 -2.1543231949985744e+02 -8.1285278561412497e+01 6.7732696085172833e+01 0 0 0
5344 433 7 0.0000000000000000e+00 -2.1877514437684681e+02 -5.9705132524752003e+01 7.2457374957172675e+01 0 0 0
389 39 2 0.0000000000000000e+00 -2.4079394522139654e+02 -5.8973389131692294e+01 5.9274551665096133e+01 0 0 0
5332 433 7 0.0000000000000000e+00 -2.2687400940266298e+02 -6.9408143377655549e+01 7.9637560443413975e+01 0 0 0
5579 473 10 0.0000000000000000e+00 -2.4650741635699322e+02 -6.6970653570125407e+01 7.6500343394300387e+01 0 0 0
5333 433 8 0.0000000000000000e+00 -2.2753299185408071e+02 -6.1239997098577298e+01 8.5095254531460824e+01 0 0 0
5343 433 8 0.0000000000000000e+00 -2.1548994244667787e+02 -6.2154199197848833e+01 8.1626187463670760e+01 0 0 0
2598 260 6 0.0000000000000000e+00 -2.1796964621831296e+02 -5.6242537994054729e+01 6.0813966339147861e+01 1 0 0
974 98 5 0.0000000000000000e+00 -2.3715018990316386e+02 -7.0044600784648779e+01 8.5421774503882901e+01 0 0 0
3927 359 8 0.0000000000000000e+00 -2.1421114580965394e+02 -8.1053840211570687e+01 8.4238156773256165e+01 0 0 0
3937 359 8 0.0000000000000000e+00 -2.0884149752254089e+02 -9.4793385485409289e+01 4.4820643748336330e+01 0 0 0
3772 351 8 0.0000000000000000e+00 -1.9514456381619544e+02 -8.5693458066216252e+01 4.4605227398055305e+01 0 0 0
1034 104 5 0.0000000000000000e+00 -2.1223308096650453e+02 -7.9851578646851891e+01 5.8107767496433347e+01 0 0 0