LAMMPS data file via write_data, version 5 Jun 2019, timestep = 390000000

5660 atoms
11 atom types
5939 bonds
7 bond types
4660 angles
4 angle types

-3.0000000000000000e+02 3.0000000000000000e+02 xlo xhi
-3.0000000000000000e+02 3.0000000000000000e+02 ylo yhi
0.0000000000000000e+00 3.0000000000000000e+02 zlo zhi

Masses

1 1000
2 450
3 450
4 11000
5 7000
6 450
7 450
8 450
9 450
10 450
11 20000

Pair Coeffs # lj/cut

1 0.24 10
2 0.24 10
3 0.24 10
4 0.24 10
5 0.24 10
6 0.24 10
7 0.24 10
8 0.24 10
9 0.24 10
10 0.24 10
11 0.24 30

Angle Coeffs # cosine

1 1
2 1
3 1
4 1

Atoms # full

2081 209 4 0.0000000000000000e+00 -2.7317606148546827e+02 -1.3356428100391977e+02 3.8566693462083713e+01 0 0 0
2084 209 5 0.0000000000000000e+00 -2.8254032385280749e+02 -1.1779959158157561e+02 3.2348646118162364e+01 0 0 0
2083 209 6 0.0000000000000000e+00 -2.8672458419805656e+02 -1.2659421540866087e+02 3.1288906121786304e+01 0 0 0
3894 357 7 0.0000000000000000e+00 -2.7930806111792879e+02 -1.0938973515454022e+02 3.9499732089410600e+01 1 0 0
3893 357 8 0.0000000000000000e+00 -2.8053227391161494e+02 -1.0130038773379098e+02 3.3916516559088670e+01 1 0 0
2085 209 6 0.0000000000000000e+00 -2.8865168216700033e+02 -1.1457501484804577e+02 3.9846027247661468e+01 0 0 0
3895 357 8 0.0000000000000000e+00 -2.7084839112542517e+02 -1.1387542214414157e+02 4.1376749699677219e+01 1 0 0
2082 209 6 0.0000000000000000e+00 -2.7762386812993708e+02 -1.3088628053568780e+02 3.0311389906778896e+01 0 0 0
2086 209 6 0.0000000000000000e+00 -2.9227003500048539e+02 -1.0580438053477918e+02 3.6322863444609737e+01 0 0 0
3896 357 8 0.0000000000000000e+00 -2.6751505884429719e+02 -1.0579919854471072e+02 3.7078309698009065e+01 1 0 0
3892 357 8 0.0000000000000000e+00 -2.8488351140944627e+02 -9.1844993239913649e+01 3.1465821675416475e+01 1 0 0
947 95 5 0.0000000000000000e+00 -2.9606060262892498e+02 -6.5687815932671342e+01 1.1744500707505981e+01 0 0 0
1970 197 5 0.0000000000000000e+00 -2.8691442289077065e+02 -7.5982074865653544e+01 2.5461991474547066e+01 0 0 0
1830 183 5 0.0000000000000000e+00 -2.8302832052626133e+02 -7.0205904201944364e+01 3.2739329291782639e+01 1 0 0
1969 197 6 0.0000000000000000e+00 -2.8980822044970290e+02 -8.2928659960994111e+01 3.1881957596249929e+01 0 0 0
1968 197 6 0.0000000000000000e+00 -2.9728857645757910e+02 -8.7116042510499341e+01 3.5896836509634575e+01 0 0 0
3901 357 8 0.0000000000000000e+00 -2.8033955584811662e+02 -8.5698035905700138e+01 3.8701976702170427e+01 1 0 0
3902 357 8 0.0000000000000000e+00 -2.7172027190861701e+02 -8.2268854442163516e+01 3.4359809346334885e+01 1 0 0
3900 357 7 0.0000000000000000e+00 -2.8751260695912009e+02 -9.2717779791451804e+01 4.1364349316019208e+01 1 0 0
1829 183 6 0.0000000000000000e+00 -2.7607068995616083e+02 -6.4236989911472179e+01 2.8493142756201085e+01 1 0 0
3891 357 7 0.0000000000000000e+00 -2.9340631479903652e+02 -9.1586158938454460e+01 2.6355273027773805e+01 1 0 0
2599 260 6 0.0000000000000000e+00 -2.9351813311129854e+02 -7.0426696374673710e+01 3.3456799248185121e+01 1 0 0
944 95 5 0.0000000000000000e+00 -2.9951956931161118e+02 -7.7679035324847945e+01 6.5165911871093076e+00 0 0 0
3263 324 8 0.0000000000000000e+00 -2.7078576521195816e+02 -6.4104709516823576e+01 4.0286864188806248e+01 0 0 0
3264 324 7 0.0000000000000000e+00 -2.8089743947618973e+02 -6.3262206928220571e+01 3.9704641404064603e+01 0 0 0
5640 494 10 0.0000000000000000e+00 -2.6281498717554524e+02 -8.4414681538530914e+01 4.0412408407085422e+01 0 1 0
3903 357 9 0.0000000000000000e+00 -2.6265179279417788e+02 -7.9318006192770426e+01 3.0214280734672926e+01 1 0 0
945 95 6 0.0000000000000000e+00 -2.8993931715310651e+02 -7.5696124444728099e+01 5.0818495024578283e+00 0 0 0
2594 260 5 0.0000000000000000e+00 -2.9696267464823262e+02 -9.5714189952881583e+01 1.6780439527309422e+01 1 0 0
946 95 6 0.0000000000000000e+00 -2.9475240386005021e+02 -6.7069602757084553e+01 2.3638082093377975e+00 0 0 0
3897 357 7 0.0000000000000000e+00 -2.6812801784488028e+02 -9.6535872891127184e+01 3.9827597208732904e+01 1 0 0
2598 260 6 0.0000000000000000e+00 -2.9571096524400707e+02 -6.9348797535889702e+01 2.3839148715884122e+01 1 0 0
948 95 6 0.0000000000000000e+00 -2.9008295082176932e+02 -6.1529282772951873e+01 1.8857446432444437e+01 0 0 0
3265 324 8 0.0000000000000000e+00 -2.8662094870361187e+02 -6.0168843881867687e+01 3.2021523420558239e+01 0 0 0
2597 260 5 0.0000000000000000e+00 -2.9977828436001943e+02 -7.8405183673048882e+01 2.4476797654021912e+01 1 0 0
2087 209 5 0.0000000000000000e+00 -2.9652784269090597e+02 -9.8882194591451139e+01 4.2273544466048492e+01 0 0 0
826 83 6 0.0000000000000000e+00 -2.5568260985050642e+02 -7.2713040372097069e+01 1.5284308368478506e+01 0 0 0
827 83 5 0.0000000000000000e+00 -2.5289929361665807e+02 -6.2877807165809813e+01 1.4078310931046124e+01 0 0 0
823 83 6 0.0000000000000000e+00 -2.4263430782071711e+02 -7.3330134791673913e+01 3.3183764009765319e+01 0 0 0
824 83 5 0.0000000000000000e+00 -2.4886884718053690e+02 -6.6564350098916563e+01 2.9996497488423966e+01 0 0 0
822 83 6 0.0000000000000000e+00 -2.3734578048701545e+02 -7.8811928900971367e+01 2.5925522795350137e+01 0 0 0
821 83 4 0.0000000000000000e+00 -2.2930965924930325e+02 -8.0271000179236026e+01 1.9984414238142239e+01 0 0 0
580 58 3 0.0000000000000000e+00 -2.3472885325883252e+02 -6.9961624251983153e+01 2.1875238669235902e+01 0 0 0
579 58 2 0.0000000000000000e+00 -2.3749618009214714e+02 -6.6147560930142504e+01 1.3206406319213402e+01 0 0 0
825 83 6 0.0000000000000000e+00 -2.5485504321116915e+02 -7.3072850450141132e+01 2.4975511673738659e+01 0 0 0
5629 490 11 0.0000000000000000e+00 -2.0844362682647551e+02 -6.4932854674528457e+01 3.1165280654702407e+01 0 0 0
5630 490 10 0.0000000000000000e+00 -2.0542836086744913e+02 -6.3337827174725248e+01 2.1600489167784065e+01 0 0 0
5628 490 10 0.0000000000000000e+00 -2.0107374965111191e+02 -6.0257963736990746e+01 3.6112297044205143e+01 0 0 0
390 39 3 0.0000000000000000e+00 -1.7583663190137037e+02 -6.6257988375620897e+01 2.0314736126290750e+01 0 0 0
671 68 1 0.0000000000000000e+00 -1.7862982320607540e+02 -7.6513062265981105e+01 5.1170700000000000e+00 0 0 0
672 68 2 0.0000000000000000e+00 -1.8064157821717524e+02 -7.8915066693893266e+01 1.4798977515853634e+01 0 0 0
4662 397 8 0.0000000000000000e+00 -1.8956977482159007e+02 -6.5229679945239695e+01 3.5171538189870887e+01 0 0 0
4663 397 9 0.0000000000000000e+00 -1.9762103922648842e+02 -7.1000356000642739e+01 3.6751975143890370e+01 0 0 0
673 68 2 0.0000000000000000e+00 -1.7507662476181224e+02 -8.2292756026241349e+01 2.2822904319283605e+01 0 0 0
2583 259 6 0.0000000000000000e+00 -1.7354455292138016e+02 -7.8947707669428027e+01 3.9557748849362184e+01 0 0 0
674 68 3 0.0000000000000000e+00 -1.6573135106827107e+02 -8.5257446725845867e+01 2.1352496286475663e+01 0 0 0
676 68 2 0.0000000000000000e+00 -1.5252576468671953e+02 -8.9550363071003147e+01 3.1729107544963217e+01 0 0 0
2582 259 6 0.0000000000000000e+00 -1.7095738095556337e+02 -7.5023273155563629e+01 3.0522760115699015e+01 0 0 0
675 68 2 0.0000000000000000e+00 -1.5704198480154406e+02 -9.0822594235675624e+01 2.2843853770170448e+01 0 0 0
2581 259 4 0.0000000000000000e+00 -1.6357793623352379e+02 -6.9143364963473829e+01 2.6395331245980916e+01 0 0 0
387 39 3 0.0000000000000000e+00 -1.6611072085230001e+02 -6.6161533249803227e+01 1.6304706956868252e+01 0 0 0
1911 192 4 0.0000000000000000e+00 -1.3532979196237602e+02 -8.6329700031731619e+01 5.9110730363422865e+00 0 0 0
386 39 2 0.0000000000000000e+00 -1.6142488613289598e+02 -7.4705495688591057e+01 1.4457122106214594e+01 0 0 0
385 39 2 0.0000000000000000e+00 -1.5445759885403967e+02 -7.9305022270350563e+01 9.6994866728767821e+00 0 0 0
384 39 3 0.0000000000000000e+00 -1.4420079725232549e+02 -8.0764667443821139e+01 1.0323435986510804e+01 0 0 0
383 39 2 0.0000000000000000e+00 -1.3994858895483173e+02 -7.2232559717429865e+01 1.3254633908976814e+01 0 0 0
677 68 3 0.0000000000000000e+00 -1.4950619276459926e+02 -9.6032860881719841e+01 3.8637621846038392e+01 0 0 0
1803 181 6 0.0000000000000000e+00 -1.6900802020191531e+02 -6.1053263211817857e+01 3.6538005012441381e+01 0 0 0
382 39 2 0.0000000000000000e+00 -1.3779361679200204e+02 -6.3276756580776372e+01 9.5142073487950061e+00 0 0 0
4822 406 7 0.0000000000000000e+00 -1.4711178783631993e+02 -7.4531657338367737e+01 2.4308785222002815e+01 0 0 0
4821 406 8 0.0000000000000000e+00 -1.4696180564099606e+02 -6.5178796781598635e+01 2.2049575056680400e+01 0 0 0
4823 406 8 0.0000000000000000e+00 -1.3799737477307912e+02 -7.7764868429028766e+01 2.0983346653351184e+01 0 0 0
1804 181 5 0.0000000000000000e+00 -1.6090770673407803e+02 -6.3064737894375192e+01 4.1654251072643511e+01 0 0 0
1917 192 5 0.0000000000000000e+00 -1.4190209027870605e+02 -7.5267267937718600e+01 4.1484471407668835e+01 0 0 0
4820 406 8 0.0000000000000000e+00 -1.3754125776167180e+02 -6.3074845847974899e+01 2.4870993217916407e+01 0 0 0
680 68 3 0.0000000000000000e+00 -1.6244590074693201e+02 -9.3653499514257490e+01 4.2429438735800417e+01 0 0 0
1912 192 6 0.0000000000000000e+00 -1.3781403797318526e+02 -9.2731827800247530e+01 1.2870583418136558e+01 0 0 0
4826 406 8 0.0000000000000000e+00 -1.4412032632669869e+02 -6.5573936264387328e+01 3.6224861008820547e+01 0 0 0
4825 406 7 0.0000000000000000e+00 -1.3434862667896809e+02 -6.8959525030348374e+01 3.7417969475977287e+01 0 0 0
1913 192 6 0.0000000000000000e+00 -1.3441909441520875e+02 -9.2207793122362403e+01 2.1655234566918864e+01 0 0 0
4824 406 8 0.0000000000000000e+00 -1.3360164052286424e+02 -7.3442386488022109e+01 2.8982681868610456e+01 0 0 0
5651 497 10 0.0000000000000000e+00 -1.3280989710398305e+02 -9.0093400051811884e+01 3.6804787731019282e+01 0 0 0
594 60 3 0.0000000000000000e+00 -2.7825429114393984e+02 -2.2736899332948877e+01 1.9354866383479038e+01 1 0 0
949 95 6 0.0000000000000000e+00 -2.8367661327538036e+02 -5.8896296051597680e+01 1.1251871572805619e+01 0 0 0
751 76 1 0.0000000000000000e+00 -2.9433285612570398e+02 -5.7182802806149098e+01 6.8810700000000002e+00 0 0 0
3266 324 8 0.0000000000000000e+00 -2.9113693517352573e+02 -5.4217298074051577e+01 2.4947790876848348e+01 0 0 0
950 95 5 0.0000000000000000e+00 -2.8152955515746999e+02 -5.1381107414157604e+01 6.0671919637327676e+00 0 0 0
1826 183 6 0.0000000000000000e+00 -2.8998967677376271e+02 -4.2978976754106846e+01 3.8488174080108742e+01 1 0 0
1824 183 5 0.0000000000000000e+00 -2.9451136498757660e+02 -4.3468630713112056e+01 2.0074624341492079e+01 1 0 0
1823 183 6 0.0000000000000000e+00 -2.8630531716928920e+02 -4.7036501983549563e+01 1.5640454379753336e+01 1 0 0
3268 324 8 0.0000000000000000e+00 -2.7538182623511568e+02 -4.2711248239096641e+01 2.6242430682519643e+01 0 0 0
3267 324 7 0.0000000000000000e+00 -2.8209494660693827e+02 -4.9798597859705488e+01 2.5076020210681087e+01 0 0 0
1827 183 5 0.0000000000000000e+00 -2.8288938160438244e+02 -4.9277480579801363e+01 3.5401978910842942e+01 1 0 0
1822 183 6 0.0000000000000000e+00 -2.7893423730679143e+02 -4.0027567328886036e+01 1.4824716932702223e+01 1 0 0
1821 183 4 0.0000000000000000e+00 -2.7243692101671991e+02 -3.2380459961723083e+01 1.6173756775247661e+01 1 0 0
3269 324 8 0.0000000000000000e+00 -2.7125720111860483e+02 -3.6560228698673946e+01 3.3104566818054742e+01 0 0 0
1828 183 6 0.0000000000000000e+00 -2.7598301257863159e+02 -5.5088309592313820e+01 3.3559566225785979e+01 1 0 0
3270 324 7 0.0000000000000000e+00 -2.7606813235819646e+02 -4.1876518561220550e+01 4.0178742838044158e+01 0 0 0
2419 242 6 0.0000000000000000e+00 -2.7677408938200648e+02 -2.6029404781748937e+01 3.5714640424114933e+01 0 0 0
595 60 2 0.0000000000000000e+00 -2.7399325237818863e+02 -2.8998901644189456e+01 2.5819082286804406e+01 1 0 0
1825 183 6 0.0000000000000000e+00 -2.9310340743796911e+02 -4.1135540702550898e+01 2.9428624099540841e+01 1 0 0
596 60 2 0.0000000000000000e+00 -2.6689079137077636e+02 -2.7106320393185989e+01 3.2722850339920079e+01 1 0 0
597 60 3 0.0000000000000000e+00 -2.6375910497130542e+02 -2.4952477258031411e+01 4.2342935495925467e+01 1 0 0
3272 324 8 0.0000000000000000e+00 -2.6395370587816439e+02 -5.3403846966596390e+01 3.7836942536796691e+01 0 0 0
830 83 5 0.0000000000000000e+00 -2.5903905809056471e+02 -4.3031114347406977e+01 2.8398425926030860e+01 0 0 0
2420 242 5 0.0000000000000000e+00 -2.7145543675542086e+02 -3.2681594188005704e+01 4.1110138641667014e+01 0 0 0
2418 242 6 0.0000000000000000e+00 -2.8638059619461740e+02 -2.1335650318270485e+01 3.5522780533832908e+01 0 0 0
4569 393 7 0.0000000000000000e+00 -2.9655374243525722e+02 -5.3385436501841518e+01 1.5427407917938593e+01 1 0 0
3273 324 7 0.0000000000000000e+00 -2.5974329176517523e+02 -5.4549828153625683e+01 2.8822648610434921e+01 0 0 0
978 98 6 0.0000000000000000e+00 -2.9871754118969039e+02 -4.7728388462861211e+01 4.2275050309405316e+01 0 0 0
578 58 2 0.0000000000000000e+00 -2.4139402786184914e+02 -5.7075942153316198e+01 1.2460817097533926e+01 0 0 0
3276 324 9 0.0000000000000000e+00 -2.3289193889306412e+02 -5.4455699119597199e+01 2.9352506146245492e+01 0 0 0
828 83 6 0.0000000000000000e+00 -2.5790938767527200e+02 -5.4062616272444117e+01 1.5356645390987076e+01 0 0 0
829 83 6 0.0000000000000000e+00 -2.5580236497466274e+02 -4.4987640528903967e+01 1.9842272317843943e+01 0 0 0
3275 324 8 0.0000000000000000e+00 -2.4314744043909707e+02 -5.5717446622151961e+01 2.8574943782843558e+01 0 0 0
3274 324 8 0.0000000000000000e+00 -2.5122747821597537e+02 -5.5045071145140064e+01 2.3376098255197846e+01 0 0 0
577 58 3 0.0000000000000000e+00 -2.4214937065624167e+02 -4.6597893425545756e+01 1.3319320101518967e+01 0 0 0
576 58 2 0.0000000000000000e+00 -2.3810044469987585e+02 -3.7459649970509588e+01 1.0921232627802475e+01 0 0 0
574 58 3 0.0000000000000000e+00 -2.5106916943566844e+02 -2.8819028307224588e+01 1.8878756273463672e+01 0 0 0
1011 102 4 0.0000000000000000e+00 -2.5444695456633275e+02 -3.2020090905838288e+01 2.8847313715737972e+01 1 0 0
575 58 2 0.0000000000000000e+00 -2.4410151752085994e+02 -2.9806483979276770e+01 1.1113900772106662e+01 0 0 0
3428 332 9 0.0000000000000000e+00 -2.4782628257545323e+02 -4.6506996458071946e+01 3.3637987488706550e+01 0 0 0
3427 332 8 0.0000000000000000e+00 -2.4501505544678139e+02 -4.5115329151714029e+01 2.4220390359773802e+01 0 0 0
3426 332 8 0.0000000000000000e+00 -2.4096140829941905e+02 -3.6404692322095499e+01 2.1832109056526530e+01 0 0 0
5568 470 10 0.0000000000000000e+00 -2.3676489146009794e+02 -4.4097019275174389e+01 3.1585068578523966e+01 1 0 0
1012 102 6 0.0000000000000000e+00 -2.4710543956550725e+02 -2.7033973421813275e+01 3.2390660315297225e+01 1 0 0
5569 470 11 0.0000000000000000e+00 -2.3455220201504093e+02 -4.8223032107033220e+01 4.0676604588316238e+01 1 0 0
1014 102 5 0.0000000000000000e+00 -2.2727047160565911e+02 -2.8642086637277131e+01 3.2429457363982671e+01 1 0 0
3021 303 4 0.0000000000000000e+00 -2.4802744487800416e+02 -3.7808933254907423e+01 4.0822981910650100e+01 0 0 0
1013 102 6 0.0000000000000000e+00 -2.3693501686380179e+02 -2.6526281965634087e+01 3.2649847524662924e+01 1 0 0
1015 102 6 0.0000000000000000e+00 -2.2133331147298895e+02 -3.5982454280616743e+01 3.6351218163523889e+01 1 0 0
598 60 2 0.0000000000000000e+00 -2.5451564404193564e+02 -2.1443253690510890e+01 4.2636019959203935e+01 1 0 0
5570 470 10 0.0000000000000000e+00 -2.2991954866777755e+02 -5.6741123478805804e+01 4.0063866859282193e+01 1 0 0
3425 332 7 0.0000000000000000e+00 -2.3938803059572211e+02 -2.6112651846709561e+01 2.1743569382415494e+01 0 0 0
5338 433 7 0.0000000000000000e+00 -2.2061889053229001e+02 -2.0986765491682601e+01 3.5899936618149304e+01 0 0 0
573 58 2 0.0000000000000000e+00 -2.4911361683317654e+02 -2.0347185843757149e+01 1.3632317710087301e+01 0 0 0
389 39 2 0.0000000000000000e+00 -1.7704700953312255e+02 -5.7722910899560560e+01 1.5507145924960648e+01 0 0 0
4661 397 8 0.0000000000000000e+00 -1.8162575086030708e+02 -5.9813206536599878e+01 3.3800554247129178e+01 0 0 0
5340 433 8 0.0000000000000000e+00 -2.0354652905890771e+02 -2.5676274055555727e+01 2.6854033414693763e+01 0 0 0
1018 102 6 0.0000000000000000e+00 -2.1509807011129010e+02 -4.7260859848577439e+01 3.5683352932649491e+01 1 0 0
5347 433 9 0.0000000000000000e+00 -1.9483340882521517e+02 -5.8879225995995185e+01 2.2541603381015044e+01 0 0 0
5346 433 8 0.0000000000000000e+00 -1.8968610528576980e+02 -5.4907899386741512e+01 1.5402642404599879e+01 0 0 0
5345 433 8 0.0000000000000000e+00 -1.8581719343787321e+02 -4.5669241280291622e+01 1.6373857693333338e+01 0 0 0
5342 433 8 0.0000000000000000e+00 -2.0296616858592918e+02 -3.5728661171316851e+01 8.9661156199529639e+00 0 0 0
5341 433 7 0.0000000000000000e+00 -2.0364495242385550e+02 -3.1483529899220194e+01 1.8773191744734422e+01 0 0 0
5343 433 8 0.0000000000000000e+00 -1.9252229562188418e+02 -3.5037726127108336e+01 8.1907730687761351e+00 0 0 0
5344 433 7 0.0000000000000000e+00 -1.9011741109625314e+02 -3.7278329005335891e+01 1.8187010333723087e+01 0 0 0
1020 102 5 0.0000000000000000e+00 -2.1009929266404248e+02 -3.4984455619798425e+01 2.7649559469540169e+01 1 0 0
1019 102 6 0.0000000000000000e+00 -2.0724316024871914e+02 -4.4170120844869679e+01 2.9754477366241662e+01 1 0 0
2901 291 4 0.0000000000000000e+00 -1.8733101235655892e+02 -4.8456146523163277e+01 3.2028657179046185e+01 0 0 0
2902 291 6 0.0000000000000000e+00 -1.9513588243550404e+02 -4.8523133841616712e+01 2.5937412558369449e+01 0 0 0
1971 198 4 0.0000000000000000e+00 -1.7768270357720610e+02 -3.5179691235257941e+01 1.6240553815925338e+01 0 0 0
2903 291 6 0.0000000000000000e+00 -2.0295270056016608e+02 -5.4127220610102604e+01 2.9272736557825553e+01 0 0 0
2904 291 5 0.0000000000000000e+00 -2.0460144003087774e+02 -5.2045690391614045e+01 3.8879651857065475e+01 0 0 0
770 77 3 0.0000000000000000e+00 -1.9032330966564581e+02 -4.3892207932653129e+01 4.2053037621211914e+01 0 0 0
769 77 2 0.0000000000000000e+00 -1.8752832297633151e+02 -3.7031094950161823e+01 3.5157751014415304e+01 0 0 0
4341 381 7 0.0000000000000000e+00 -1.9485391825121113e+02 -2.1133902589319796e+01 3.0088135326664258e+01 0 0 0
4342 381 8 0.0000000000000000e+00 -1.8635150207374693e+02 -2.6879424352248819e+01 3.2168475168818354e+01 0 0 0
4343 381 8 0.0000000000000000e+00 -1.9278887059703428e+02 -2.6108665777551256e+01 3.9480596747649578e+01 0 0 0
791 80 1 0.0000000000000000e+00 -1.7792614862036646e+02 -2.7240676568221517e+01 5.0286200000000001e+00 0 0 0
768 77 2 0.0000000000000000e+00 -1.7764494077299213e+02 -3.5959121279794424e+01 3.5993258064706026e+01 0 0 0
5339 433 8 0.0000000000000000e+00 -2.1117103938341000e+02 -2.2248863863194071e+01 3.3121598822458125e+01 0 0 0
4654 397 7 0.0000000000000000e+00 -2.0224278149057835e+02 -2.0494693331374979e+01 4.2440120752684933e+01 0 0 0
381 39 1 0.0000000000000000e+00 -1.4585026487487360e+02 -5.8990185685234820e+01 5.0285799999999998e+00 0 0 0
2423 243 6 0.0000000000000000e+00 -1.3431240684705119e+02 -3.6850996463118662e+01 4.0774339452412306e+01 0 0 0
1974 198 5 0.0000000000000000e+00 -1.7350929061375061e+02 -2.1984401138219820e+01 4.1286840628119442e+01 0 0 0
1972 198 6 0.0000000000000000e+00 -1.7362650802535882e+02 -2.9552906697309698e+01 2.3580776645773838e+01 0 0 0
766 77 2 0.0000000000000000e+00 -1.7147033333815500e+02 -4.7006225344615288e+01 2.9513752755841104e+01 0 0 0
388 39 2 0.0000000000000000e+00 -1.6772796153718664e+02 -5.7047655875756128e+01 1.7922528343986869e+01 0 0 0
4796 404 9 0.0000000000000000e+00 -1.4417355075367715e+02 -4.1553825925423425e+01 2.4237645949354917e+01 0 0 0
1973 198 6 0.0000000000000000e+00 -1.7355092639164400e+02 -2.5365522576415955e+01 3.1836811032376627e+01 0 0 0
767 77 3 0.0000000000000000e+00 -1.7060799393489501e+02 -4.2007171056736148e+01 3.8134443171061008e+01 0 0 0
992 100 6 0.0000000000000000e+00 -1.3800235704825451e+02 -5.6057276968169539e+01 4.2166459974780878e+01 0 0 0
4795 404 8 0.0000000000000000e+00 -1.4229191636859886e+02 -3.3845496621019088e+01 2.9869900799183370e+01 0 0 0
19 2 2 0.0000000000000000e+00 -1.5284043713191124e+02 -5.6530474231192471e+01 2.6705304916482081e+01 0 0 0
20 2 3 0.0000000000000000e+00 -1.4351198451292370e+02 -5.4520230464732677e+01 3.0200649743268720e+01 0 0 0
794 80 3 0.0000000000000000e+00 -1.7264256480147418e+02 -4.3741001086175913e+01 1.0725212540028998e+01 0 0 0
795 80 2 0.0000000000000000e+00 -1.6444785286858672e+02 -4.6082643859507577e+01 6.0507817739919920e+00 0 0 0
765 77 2 0.0000000000000000e+00 -1.6670975361127941e+02 -4.2234943552192675e+01 2.3121727744858966e+01 0 0 0
796 80 2 0.0000000000000000e+00 -1.5636403052879660e+02 -4.7294062162888537e+01 1.3915717194230939e-01 0 0 0
764 77 3 0.0000000000000000e+00 -1.6241819615326887e+02 -3.6431439068388798e+01 1.5819757719431655e+01 0 0 0
797 80 3 0.0000000000000000e+00 -1.4914911982538865e+02 -4.0778799803584903e+01 2.7064129652700823e+00 0 0 0
763 77 2 0.0000000000000000e+00 -1.5773256727157741e+02 -2.9874234070247169e+01 9.9497682141321455e+00 0 0 0
761 77 1 0.0000000000000000e+00 -1.3915353193655409e+02 -2.5091282606527884e+01 5.0072700000000001e+00 0 0 0
762 77 2 0.0000000000000000e+00 -1.4924505144486463e+02 -2.4639538986089413e+01 8.3564820417722956e+00 0 0 0
798 80 2 0.0000000000000000e+00 -1.4985794796355412e+02 -4.0201885074574896e+01 1.2768866767719233e+01 0 0 0
1801 181 4 0.0000000000000000e+00 -1.6068161754352590e+02 -4.9337936446471232e+01 3.0022572238856711e+01 0 0 0
16 2 2 0.0000000000000000e+00 -1.6596854776258209e+02 -3.4025287461626498e+01 2.9808424167662253e+01 0 0 0
15 2 2 0.0000000000000000e+00 -1.6152587097642041e+02 -2.7295075605515752e+01 2.4000543210415440e+01 0 0 0
18 2 2 0.0000000000000000e+00 -1.5405370164267802e+02 -4.7455202618705002e+01 2.2200003704788834e+01 0 0 0
17 2 3 0.0000000000000000e+00 -1.5722511966939371e+02 -3.8849098287222752e+01 2.6441900934964679e+01 0 0 0
4794 404 8 0.0000000000000000e+00 -1.3892013614083123e+02 -2.7762776961539842e+01 3.6820045880765150e+01 0 0 0
793 80 2 0.0000000000000000e+00 -1.7116459334687701e+02 -3.4031247554637702e+01 7.9334644637859002e+00 0 0 0
1802 181 6 0.0000000000000000e+00 -1.6515679440199796e+02 -5.8095340952573586e+01 2.8113517276943625e+01 0 0 0
799 80 2 0.0000000000000000e+00 -1.4943941187538022e+02 -3.2058993147366344e+01 1.7909449250060085e+01 0 0 0
792 80 2 0.0000000000000000e+00 -1.7235146831639182e+02 -2.5312606732335688e+01 1.3088333883019237e+01 0 0 0
5032 417 8 0.0000000000000000e+00 -1.5253741034727710e+02 -2.8616872068670716e+01 3.7617175058487511e+01 0 0 0
991 100 4 0.0000000000000000e+00 -1.3364381834337047e+02 -5.9480265210756372e+01 3.3727338202797796e+01 0 0 0
800 80 3 0.0000000000000000e+00 -1.4478422886944685e+02 -2.5347444584574919e+01 2.3277722331121520e+01 0 0 0
5496 446 10 0.0000000000000000e+00 -1.3428772314673319e+02 -4.4815532072820346e+01 1.9393961458729915e+01 0 0 0
4793 404 7 0.0000000000000000e+00 -1.4504698329383640e+02 -3.5089620903766864e+01 4.0066378456935013e+01 0 0 0
4792 404 8 0.0000000000000000e+00 -1.5483521866693206e+02 -3.8247177625660875e+01 4.1842984607283633e+01 0 0 0
3899 357 8 0.0000000000000000e+00 -2.8391417445135642e+02 -1.0049129894352126e+02 4.6709529187828529e+01 1 0 0
678 68 2 0.0000000000000000e+00 -1.5316258430505377e+02 -1.0305632098934778e+02 4.5331467825027261e+01 0 0 0
679 68 2 0.0000000000000000e+00 -1.6207608086824152e+02 -1.0078869110168618e+02 4.9784394727219876e+01 0 0 0
980 98 5 0.0000000000000000e+00 -2.9106957003591515e+02 -6.2035853737681371e+01 4.2970770441684799e+01 0 0 0
3898 357 8 0.0000000000000000e+00 -2.7534353187043547e+02 -9.6462347142471984e+01 4.6614388205754516e+01 1 0 0
1967 197 5 0.0000000000000000e+00 -2.9116279639691027e+02 -8.3470494934998285e+01 4.3157973194519229e+01 0 0 0
3262 324 8 0.0000000000000000e+00 -2.6420880544770444e+02 -6.0965343710583326e+01 4.6161978760336957e+01 0 0 0
1966 197 6 0.0000000000000000e+00 -2.8425760779398195e+02 -7.6352341543566467e+01 4.3055128949863771e+01 0 0 0
1965 197 6 0.0000000000000000e+00 -2.8301763703876679e+02 -7.5394730735838039e+01 5.2345267096147268e+01 0 0 0
4099 368 8 0.0000000000000000e+00 -2.6888065220073395e+02 -7.4512678393313294e+01 5.9948212085183719e+01 0 0 0
4100 368 7 0.0000000000000000e+00 -2.6309917444014621e+02 -7.1521402311935347e+01 6.7697076751030650e+01 0 0 0
5641 494 11 0.0000000000000000e+00 -2.6313217192432688e+02 -8.9521658900853936e+01 4.9327553337979893e+01 0 1 0
1964 197 5 0.0000000000000000e+00 -2.8412968002284981e+02 -6.6354963000828405e+01 5.7361285285665787e+01 0 0 0
4098 368 8 0.0000000000000000e+00 -2.7151830056563972e+02 -6.6414528834725203e+01 5.4895999087395225e+01 0 0 0
5642 494 10 0.0000000000000000e+00 -2.6485049904755067e+02 -9.5204360287577316e+01 5.7230315200504492e+01 0 1 0
4101 368 8 0.0000000000000000e+00 -2.6243736756458776e+02 -6.5421590534938815e+01 7.5365244760951128e+01 0 0 0
3258 324 7 0.0000000000000000e+00 -2.7992257540979153e+02 -7.1228774586600039e+01 6.6904932751500809e+01 0 0 0
4112 368 9 0.0000000000000000e+00 -2.6440823750992087e+02 -8.4663085092985398e+01 6.1059858694538406e+01 0 0 0
3259 324 8 0.0000000000000000e+00 -2.7539372785436444e+02 -6.2457730054051723e+01 6.4615454423911373e+01 0 0 0
4111 368 8 0.0000000000000000e+00 -2.5545058830640562e+02 -8.4380796393333526e+01 6.4294530043083626e+01 0 0 0
4110 368 8 0.0000000000000000e+00 -2.4994139568873535e+02 -7.6578876927924668e+01 6.2613038315365799e+01 0 0 0
4109 368 7 0.0000000000000000e+00 -2.5337416342061624e+02 -6.8035401312918964e+01 6.6747762505197613e+01 0 0 0
3396 331 8 0.0000000000000000e+00 -1.7779489481027775e+02 -8.5022394679069635e+01 5.2524304200355459e+01 0 0 0
3397 331 7 0.0000000000000000e+00 -1.8217086788196505e+02 -8.1831539499468647e+01 6.1254073714711517e+01 0 0 0
3399 331 8 0.0000000000000000e+00 -1.8387586938423308e+02 -6.3832891914948895e+01 6.6143848646775837e+01 0 0 0
3398 331 8 0.0000000000000000e+00 -1.8591029470649065e+02 -7.3203099274330754e+01 6.3947407550214734e+01 0 0 0
4834 406 9 0.0000000000000000e+00 -1.8171204012448217e+02 -7.9077953400704587e+01 7.4311738256374994e+01 0 0 0
1809 181 6 0.0000000000000000e+00 -1.8792219762531886e+02 -6.4220529853609719e+01 5.0971119949111511e+01 0 0 0
2589 259 6 0.0000000000000000e+00 -1.7431051524717651e+02 -6.7286933929976044e+01 7.8755497996788037e+01 0 0 0
3391 331 7 0.0000000000000000e+00 -1.7582753645028680e+02 -7.4557527759503742e+01 5.4328664077064232e+01 0 0 0
2584 259 5 0.0000000000000000e+00 -1.7511696512276009e+02 -6.9886951230311624e+01 4.4322963525342125e+01 0 0 0
1808 181 6 0.0000000000000000e+00 -1.7933278871947365e+02 -6.1680444378621537e+01 5.5859138195576364e+01 0 0 0
1790 179 5 0.0000000000000000e+00 -1.3276933979283149e+02 -7.1369779019350247e+01 6.9235321655460652e+01 0 0 0
4833 406 8 0.0000000000000000e+00 -1.7364282131236149e+02 -8.1442591816364555e+01 6.9537664784950692e+01 0 0 0
3395 331 8 0.0000000000000000e+00 -1.7088641612320768e+02 -9.2445385644765778e+01 5.0788127048150422e+01 0 0 0
3394 331 7 0.0000000000000000e+00 -1.6158830393711119e+02 -8.9905619904303393e+01 5.3954838887659221e+01 0 0 0
2585 259 6 0.0000000000000000e+00 -1.6995954235379600e+02 -6.5531265303626981e+01 5.1888110282714734e+01 0 0 0
3393 331 8 0.0000000000000000e+00 -1.5946870897808128e+02 -8.1215847512294658e+01 4.8091686918885316e+01 0 0 0
1091 110 4 0.0000000000000000e+00 -1.4422606520479604e+02 -9.8381643524357671e+01 4.8189398643727465e+01 0 0 0
3392 331 8 0.0000000000000000e+00 -1.6882246882159487e+02 -7.9480216282224802e+01 4.9711580223228566e+01 0 0 0
1092 110 6 0.0000000000000000e+00 -1.3593075812334845e+02 -9.4928511436676246e+01 5.1295449406541032e+01 0 0 0
1918 192 6 0.0000000000000000e+00 -1.4985147379743873e+02 -7.3130871907848075e+01 4.7205372923294782e+01 0 0 0
1919 192 6 0.0000000000000000e+00 -1.5852050208529400e+02 -7.2575242398865996e+01 5.2746983414386371e+01 0 0 0
1920 192 5 0.0000000000000000e+00 -1.6420303607221356e+02 -7.3502624016935016e+01 6.0853625806142730e+01 0 0 0
5130 422 8 0.0000000000000000e+00 -1.5241105420400478e+02 -9.1172680884547901e+01 8.0958150834665858e+01 0 0 0
4832 406 8 0.0000000000000000e+00 -1.6666725095659879e+02 -8.8479634346001845e+01 6.7737213367940839e+01 0 0 0
4831 406 7 0.0000000000000000e+00 -1.5877341401460717e+02 -8.3367456622932252e+01 6.3433830440967384e+01 0 0 0
4830 406 8 0.0000000000000000e+00 -1.5237664759433935e+02 -7.7419566489656745e+01 5.8454262144150277e+01 0 0 0
5129 422 7 0.0000000000000000e+00 -1.5471396285572382e+02 -9.1154315023725943e+01 7.0972719562762322e+01 0 0 0
5128 422 8 0.0000000000000000e+00 -1.4611228157771436e+02 -8.7233887501973314e+01 6.9161213467605776e+01 0 0 0
4829 406 8 0.0000000000000000e+00 -1.4996898557336863e+02 -6.7525293975855391e+01 5.7687694323112467e+01 0 0 0
5127 422 8 0.0000000000000000e+00 -1.4103265248108119e+02 -7.9078684047886313e+01 6.6459332406777278e+01 0 0 0
5126 422 7 0.0000000000000000e+00 -1.4376802014241315e+02 -6.9735254467542418e+01 6.7623177738682287e+01 0 0 0
4828 406 7 0.0000000000000000e+00 -1.5421179958289193e+02 -6.1097421160953090e+01 5.1127824118881726e+01 0 0 0
4827 406 8 0.0000000000000000e+00 -1.4780862500926895e+02 -6.1396368350184567e+01 4.4127745103557153e+01 0 0 0
4779 404 8 0.0000000000000000e+00 -1.5425837216173164e+02 -6.3589919193229775e+01 6.7733926134359194e+01 0 0 0
3599 341 9 0.0000000000000000e+00 -1.3976273000924988e+02 -6.3141606419226818e+01 5.3135159656388822e+01 0 0 0
5134 422 8 0.0000000000000000e+00 -1.4749964057757103e+02 -7.5714171669938281e+01 8.2706006969399738e+01 0 0 0
2586 259 6 0.0000000000000000e+00 -1.7199438938941805e+02 -6.3917221038582511e+01 6.1581187161478688e+01 0 0 0
5125 422 8 0.0000000000000000e+00 -1.4437158945662259e+02 -6.0526800434877543e+01 6.3212735946735400e+01 0 0 0
3029 303 6 0.0000000000000000e+00 -2.8284478009502817e+02 -2.1306307356342696e+01 7.0113006859799867e+01 0 0 0
760 76 3 0.0000000000000000e+00 -2.9564193540559586e+02 -3.3956645122869901e+01 5.6082823777960122e+01 0 0 0
3271 324 8 0.0000000000000000e+00 -2.6832557749515524e+02 -4.7392804351399775e+01 4.4018930512073332e+01 0 0 0
3261 324 7 0.0000000000000000e+00 -2.6508876518560447e+02 -5.4426216730733671e+01 5.2688855502225103e+01 0 0 0