LAMMPS data file via write_data, version 5 Jun 2019, timestep = 380000000

5660 atoms
11 atom types
5911 bonds
7 bond types
4660 angles
4 angle types

-3.0000000000000000e+02 3.0000000000000000e+02 xlo xhi
-3.0000000000000000e+02 3.0000000000000000e+02 ylo yhi
0.0000000000000000e+00 3.0000000000000000e+02 zlo zhi

Masses

1 1000
2 450
3 450
4 11000
5 7000
6 450
7 450
8 450
9 450
10 450
11 20000

Pair Coeffs # lj/cut

1 0.24 10
2 0.24 10
3 0.24 10
4 0.24 10
5 0.24 10
6 0.24 10
7 0.24 10
8 0.24 10
9 0.24 10
10 0.24 10
11 0.24 30

Angle Coeffs # cosine

1 1
2 1
3 1
4 1

Atoms # full

11 2 1 0.0000000000000000e+00 -1.9750239544916644e+02 -9.3330688181117083e+01 8.3056099999999997e+00 0 0 0
12 2 2 0.0000000000000000e+00 -1.9811258976796418e+02 -1.0007403657831169e+02 1.6030901800204234e+01 0 0 0
13 2 2 0.0000000000000000e+00 -1.9544252600627715e+02 -1.0002083038151613e+02 2.5915911109520081e+01 0 0 0
1961 197 4 0.0000000000000000e+00 -2.8970069169191476e+02 -5.4891954657471203e+01 3.4245712120622137e+01 0 0 0
755 76 2 0.0000000000000000e+00 -2.7585712650906947e+02 -3.4925167040172319e+01 2.5082537036097776e+01 0 0 0
1431 144 4 0.0000000000000000e+00 -2.6827528397722034e+02 -5.2202241593587758e+01 3.7602669400751424e+01 0 0 0
757 76 3 0.0000000000000000e+00 -2.7900710028207004e+02 -4.8683885196204471e+01 3.7571793789069545e+01 0 0 0
756 76 2 0.0000000000000000e+00 -2.7808769635750286e+02 -4.0044444419162744e+01 3.3494366118210259e+01 0 0 0
1962 197 6 0.0000000000000000e+00 -2.8785513929113813e+02 -4.6396325663336363e+01 3.8454081972856216e+01 0 0 0
661 67 1 0.0000000000000000e+00 -2.8046787497319616e+02 -5.3032018740194260e+01 7.9355000000000002e+00 1 0 0
662 67 2 0.0000000000000000e+00 -2.8629058649353897e+02 -5.0028338838475840e+01 1.5599676610546773e+01 1 0 0
665 67 2 0.0000000000000000e+00 -2.9560825702153886e+02 -4.1043170431056730e+01 2.6161529788530334e+01 1 0 0
663 67 2 0.0000000000000000e+00 -2.8928344128033541e+02 -5.1099307160229159e+01 2.4697727026503035e+01 1 0 0
1432 144 6 0.0000000000000000e+00 -2.6062904324452222e+02 -4.6670221919982836e+01 3.4410823317096309e+01 0 0 0
1433 144 6 0.0000000000000000e+00 -2.5467346368987504e+02 -4.3494164700438787e+01 4.1813841344731102e+01 0 0 0
666 67 2 0.0000000000000000e+00 -2.8865353755476485e+02 -3.6835941290172300e+01 3.1495286620814372e+01 1 0 0
667 67 3 0.0000000000000000e+00 -2.8378185530756434e+02 -3.2813812701606331e+01 3.9273827452721697e+01 1 0 0
3426 332 8 0.0000000000000000e+00 -2.4682778970373010e+02 -2.9924457367625806e+01 3.0495621926692017e+01 0 0 0
758 76 2 0.0000000000000000e+00 -2.7637043108875105e+02 -5.7223532096572917e+01 4.2021789279169283e+01 0 0 0
760 76 3 0.0000000000000000e+00 -2.8719606798854244e+02 -6.4782454370398881e+01 3.9191339793504277e+01 0 0 0
3427 332 8 0.0000000000000000e+00 -2.4856031333213187e+02 -3.5713864067535368e+01 3.8120020760107401e+01 0 0 0
664 67 3 0.0000000000000000e+00 -2.9919819956051435e+02 -5.0010785820036162e+01 2.5198893035361145e+01 1 0 0
5331 433 8 0.0000000000000000e+00 -1.9131771219984483e+02 -5.2176532420820344e+01 3.0295514116173734e+01 0 0 0
1369 137 6 0.0000000000000000e+00 -1.9377122058489684e+02 -6.2126640635738006e+01 3.3340895633611758e+01 0 0 0
1370 137 5 0.0000000000000000e+00 -2.0004056350194566e+02 -5.7213643307166357e+01 2.7129115007929290e+01 0 0 0
828 83 6 0.0000000000000000e+00 -2.3183085631548681e+02 -5.1687240517513622e+01 2.5650796350423800e+01 0 0 0
827 83 5 0.0000000000000000e+00 -2.2505088057019464e+02 -4.5141088421004632e+01 2.6730098525379123e+01 0 0 0
829 83 6 0.0000000000000000e+00 -2.2802246187213038e+02 -5.5073485318954795e+01 1.7002136033827778e+01 0 0 0
830 83 5 0.0000000000000000e+00 -2.2358499961724891e+02 -6.3491404417730834e+01 1.5520652096354530e+01 0 0 0
824 83 5 0.0000000000000000e+00 -1.9927307219499122e+02 -4.8581813009527210e+01 2.2903655207630557e+01 0 0 0
823 83 6 0.0000000000000000e+00 -2.0304118369562960e+02 -4.1741389216584246e+01 2.8907099056792575e+01 0 0 0
825 83 6 0.0000000000000000e+00 -2.0799287924735674e+02 -4.7056003350647551e+01 1.8982498108841337e+01 0 0 0
826 83 6 0.0000000000000000e+00 -2.1659051353755487e+02 -4.9766609431477121e+01 2.2042032080984249e+01 0 0 0
822 83 6 0.0000000000000000e+00 -2.0833446961284994e+02 -3.3763139276546070e+01 3.3571226451224483e+01 0 0 0
5332 433 7 0.0000000000000000e+00 -1.9852712406806421e+02 -5.0060087193001181e+01 3.7536895599614397e+01 0 0 0
5335 433 7 0.0000000000000000e+00 -2.2210608902909755e+02 -4.5066236076330867e+01 3.7563674045689865e+01 0 0 0
5333 433 8 0.0000000000000000e+00 -2.0827962216463368e+02 -5.0300201374133060e+01 4.1123513545923693e+01 0 0 0
5334 433 8 0.0000000000000000e+00 -2.1777092547377276e+02 -5.3293128847256170e+01 3.9969285213220012e+01 0 0 0
754 76 3 0.0000000000000000e+00 -2.8121544218097279e+02 -2.6125028105890550e+01 2.3929601906425173e+01 0 0 0
753 76 2 0.0000000000000000e+00 -2.8281561664085638e+02 -1.7702150554190315e+01 2.0065502408391481e+01 0 0 0
943 95 6 0.0000000000000000e+00 -2.9100344419886630e+02 -1.4745761518281041e+01 2.6684167842276977e+01 0 0 0
752 76 2 0.0000000000000000e+00 -2.7780389433214975e+02 -1.0893878968349821e+01 1.3709238495962708e+01 0 0 0
942 95 6 0.0000000000000000e+00 -2.8453700742790573e+02 -2.0076186410766692e+01 3.2612613539275394e+01 0 0 0
941 95 4 0.0000000000000000e+00 -2.7621981574362371e+02 -2.4882673784646098e+01 3.4022667524552425e+01 0 0 0
191 20 1 0.0000000000000000e+00 -2.5590749798179718e+02 -1.0735051681062821e+01 5.0072700000000001e+00 0 0 0
944 95 5 0.0000000000000000e+00 -2.9152779568342180e+02 -1.3441315829641830e+01 3.6796154850424841e+01 0 0 0
192 20 2 0.0000000000000000e+00 -2.6289767218331480e+02 -3.6111974598547762e+00 3.8869582765036510e+00 0 0 0
595 60 2 0.0000000000000000e+00 -2.8835735441721386e+02 4.2603470034980306e+00 3.5994349988952195e+01 1 0 0
4648 397 7 0.0000000000000000e+00 -2.5750883172752646e+02 -1.3305561912385180e+01 3.5835446684683497e+01 0 0 0
4649 397 8 0.0000000000000000e+00 -2.6426791787587206e+02 -6.4365030887408654e+00 3.1709874602782445e+01 0 0 0
596 60 2 0.0000000000000000e+00 -2.8871783309269227e+02 -4.5152709560095126e+00 3.1047659473759381e+01 1 0 0
194 20 3 0.0000000000000000e+00 -2.6025487253269597e+02 2.2060932851401418e+00 2.1827939790346971e+01 0 0 0
193 20 2 0.0000000000000000e+00 -2.6499050755603793e+02 -1.7378993697397636e+00 1.3583856251491351e+01 0 0 0
597 60 3 0.0000000000000000e+00 -2.8095040610111272e+02 -8.0966836690961070e+00 3.5923885118362001e+01 1 0 0
1821 183 4 0.0000000000000000e+00 -2.6003693729315881e+02 -3.8613475127111674e-01 4.2273292312805076e+01 1 0 0
751 76 1 0.0000000000000000e+00 -2.7897375478588509e+02 -1.8084620352593646e+01 6.8810700000000002e+00 0 0 0
3025 303 6 0.0000000000000000e+00 -2.4958781315678840e+02 -5.0006848447727901e+00 4.1061233563034122e+01 0 0 0
3024 303 5 0.0000000000000000e+00 -2.4853617339265008e+02 -8.0417510214587651e+00 3.1222841852343940e+01 0 0 0
600 60 3 0.0000000000000000e+00 -2.6738159439922543e+02 -8.9612084255113675e+00 4.2686309614765428e+01 1 0 0
4455 387 7 0.0000000000000000e+00 -2.7689451079947747e+02 3.4130400810670922e+00 2.5892309415843211e+01 1 0 0
1015 102 6 0.0000000000000000e+00 -2.4860531489202216e+02 5.2054243489715963e+00 2.9065925974312989e+01 1 0 0
946 95 6 0.0000000000000000e+00 -2.9868131359360513e+02 -2.3032731220154819e+01 2.4637858371479648e+01 0 0 0
4650 397 8 0.0000000000000000e+00 -2.6735991838891266e+02 3.1495477108040628e+00 3.0505673197881531e+01 0 0 0
195 20 2 0.0000000000000000e+00 -2.5666449336099447e+02 1.0547938044130051e+01 1.7454228485387379e+01 0 0 0
197 20 3 0.0000000000000000e+00 -2.4690979430740259e+02 3.8250931578044751e+00 1.0185200029551593e+01 0 0 0
2411 242 4 0.0000000000000000e+00 -2.7522202606560325e+02 -1.6741759965483901e+01 3.9779210585056923e+01 0 0 0
3023 303 6 0.0000000000000000e+00 -2.4810507427314386e+02 -5.1766631107596108e+00 2.2159008486481440e+01 0 0 0
196 20 2 0.0000000000000000e+00 -2.5689524659552438e+02 4.6311697698212964e+00 9.6943537069077887e+00 0 0 0
594 60 3 0.0000000000000000e+00 -2.8998827634109807e+02 9.6059942146163788e+00 2.7409283937028771e+01 1 0 0
945 95 6 0.0000000000000000e+00 -2.9971339088224136e+02 -1.7819185641221331e+01 3.3090792575745645e+01 0 0 0
198 20 2 0.0000000000000000e+00 -2.3846203158851617e+02 1.3158150828431885e+00 4.6253336161324325e+00 0 0 0
3022 303 6 0.0000000000000000e+00 -2.3855805157320120e+02 -7.8501505888751808e+00 1.8712786914132575e+01 0 0 0
821 83 4 0.0000000000000000e+00 -2.1018920628795294e+02 -2.4401953555728003e+01 3.6362098347477364e+01 0 0 0
1975 198 6 0.0000000000000000e+00 -1.9272759918418794e+02 -1.6763924031676492e+01 3.6815147045837683e+01 0 0 0
200 20 3 0.0000000000000000e+00 -2.2569000327225683e+02 -9.7007879414216553e+00 1.3841209495383135e+01 0 0 0
1974 198 5 0.0000000000000000e+00 -1.9581183420205605e+02 -1.6696533287207313e+01 2.7354089278015397e+01 0 0 0
199 20 2 0.0000000000000000e+00 -2.3054832918567243e+02 -2.1843766830741607e+00 1.0056154573980869e+01 0 0 0
577 58 3 0.0000000000000000e+00 -2.1543761963343755e+02 -1.4025535341146632e+01 3.8077283777077838e+01 0 0 0
576 58 2 0.0000000000000000e+00 -2.1192617362680102e+02 -6.3737233028480933e+00 3.3158061823518246e+01 0 0 0
575 58 2 0.0000000000000000e+00 -2.0555241746266435e+02 -3.3156809250741439e+00 2.6077435459581427e+01 0 0 0
574 58 3 0.0000000000000000e+00 -2.0442536398492010e+02 -1.0172327400216387e+01 1.9581737443566187e+01 0 0 0
1012 102 6 0.0000000000000000e+00 -2.2251710021278635e+02 -4.8268164480637532e+00 2.6339601981916772e+01 1 0 0
1013 102 6 0.0000000000000000e+00 -2.3154347149202113e+02 4.9272638271927777e-01 2.3763691476208493e+01 1 0 0
1014 102 5 0.0000000000000000e+00 -2.4060377478590340e+02 3.0007944163754305e+00 2.4639309507642256e+01 1 0 0
3021 303 4 0.0000000000000000e+00 -2.3562416260043921e+02 -1.1518088705334543e+01 9.3345941933001217e+00 0 0 0
1011 102 4 0.0000000000000000e+00 -2.1591665982117092e+02 -9.8023593343435689e+00 2.0578132615243760e+01 1 0 0
573 58 2 0.0000000000000000e+00 -1.9546428512555624e+02 -9.6093772184220470e+00 1.6398649333512704e+01 0 0 0
3423 332 8 0.0000000000000000e+00 -2.3037040896610580e+02 -8.4804679179363713e+00 3.1627899745403028e+01 0 0 0
3422 332 7 0.0000000000000000e+00 -2.3302101531497573e+02 1.2757561512679363e+00 3.3403242247900998e+01 0 0 0
3424 332 8 0.0000000000000000e+00 -2.3824866452401361e+02 -1.5057803644863506e+01 3.3310067070681278e+01 0 0 0
3425 332 7 0.0000000000000000e+00 -2.4389194830930214e+02 -2.0608005796480967e+01 2.7585149646847800e+01 0 0 0
1751 176 4 0.0000000000000000e+00 -2.1134155645469716e+02 8.7057618297190480e+00 2.7917850185347799e+01 0 0 0
4417 385 7 0.0000000000000000e+00 -2.0740510474286611e+02 4.3246228198774030e+00 3.8125227585191617e+01 0 0 0
3511 337 7 0.0000000000000000e+00 -1.9247968003887399e+02 4.2799940912558263e+00 2.8835988183293043e+01 0 0 0
4418 385 8 0.0000000000000000e+00 -2.1742898098041866e+02 5.8254892848929867e+00 3.7360152775593683e+01 0 0 0
4646 397 8 0.0000000000000000e+00 -2.4262438411501728e+02 -1.3882674215871457e+01 4.1999882701357208e+01 0 0 0
1973 198 6 0.0000000000000000e+00 -1.9246527087249495e+02 -2.4939798272591652e+01 2.2524837278683187e+01 0 0 0
1016 102 6 0.0000000000000000e+00 -2.5611096460185263e+02 1.2545050768445414e+01 2.9540502236724578e+01 1 0 0
2622 263 6 0.0000000000000000e+00 -2.8511486497660502e+02 4.9205700894044433e+01 1.0870696404315373e+01 0 0 0
4651 397 7 0.0000000000000000e+00 -2.6583114038366455e+02 1.1336378327452806e+01 3.5278944485527376e+01 0 0 0
4456 387 8 0.0000000000000000e+00 -2.7880049485460040e+02 1.3717917398089375e+01 2.3001185618138464e+01 1 0 0
1018 102 6 0.0000000000000000e+00 -2.7044769099092565e+02 1.8018471982837411e+01 1.7650153927673376e+01 1 0 0
4457 387 8 0.0000000000000000e+00 -2.8017842719094114e+02 2.2852530562528127e+01 2.7471749885615143e+01 1 0 0
4458 387 7 0.0000000000000000e+00 -2.7406406202553035e+02 2.1765523020434827e+01 3.5395130988594950e+01 1 0 0
1020 102 5 0.0000000000000000e+00 -2.6725000642788893e+02 2.8784856074942514e+01 3.1045493426545008e+01 1 0 0
1019 102 6 0.0000000000000000e+00 -2.6942702917142623e+02 2.7156365464312159e+01 2.1400437339233992e+01 1 0 0
781 79 1 0.0000000000000000e+00 -2.6752536336424043e+02 2.2352057793177504e+01 8.4781800000000000e+00 1 0 0
1693 170 6 0.0000000000000000e+00 -2.5846516598351587e+02 1.9862952194749642e+01 1.3198419206398183e+01 0 0 0
1694 170 5 0.0000000000000000e+00 -2.5841797341950490e+02 2.6505620100012138e+01 2.0178087082607366e+01 0 0 0
810 81 5 0.0000000000000000e+00 -2.8393371970144619e+02 4.7218457246412662e+01 3.3364978571099691e+01 0 0 0
1017 102 5 0.0000000000000000e+00 -2.6484152826964254e+02 1.3358338684580268e+01 2.4247426786473302e+01 1 0 0
3413 332 7 0.0000000000000000e+00 -2.5551478019860562e+02 3.7266742671407791e+01 2.1196297742578864e+01 0 0 0
3933 359 8 0.0000000000000000e+00 -2.6983978928101004e+02 3.6062070251570084e+01 4.1132228372412364e+01 0 0 0
782 79 2 0.0000000000000000e+00 -2.7549131042593257e+02 2.7888262104945696e+01 1.0891926908020071e+01 1 0 0
3931 359 8 0.0000000000000000e+00 -2.8167264812320775e+02 3.6256557794603296e+01 2.7477140395850157e+01 0 0 0
3932 359 7 0.0000000000000000e+00 -2.7919893702343535e+02 3.7398034518202621e+01 3.7217286857371242e+01 0 0 0
2330 233 5 0.0000000000000000e+00 -2.5479230931831901e+02 4.1456975272954047e+01 4.6442419648276978e+00 0 0 0
3412 332 8 0.0000000000000000e+00 -2.5173550321424526e+02 3.8857933150438491e+01 3.0307525063791331e+01 0 0 0
3414 332 8 0.0000000000000000e+00 -2.6495402284632104e+02 3.8202606366435440e+01 1.7177266346102481e+01 0 0 0
3930 359 8 0.0000000000000000e+00 -2.8657314896640662e+02 2.9696350291742018e+01 2.1277272819553385e+01 0 0 0
3415 332 8 0.0000000000000000e+00 -2.5887014701740770e+02 3.4742587831255221e+01 1.0188523226695102e+01 0 0 0
809 81 6 0.0000000000000000e+00 -2.9073918930181708e+02 4.1919047229344244e+01 3.7826489483621870e+01 0 0 0
783 79 2 0.0000000000000000e+00 -2.8001806447777255e+02 3.3944196525151597e+01 5.0827692612270132e+00 1 0 0
1697 170 5 0.0000000000000000e+00 -2.5057574321145674e+02 2.8770857320596289e+01 3.2900872383580271e+01 0 0 0
1695 170 6 0.0000000000000000e+00 -2.4930882450608624e+02 2.5881177777106142e+01 1.5811137058148605e+01 0 0 0
3416 332 7 0.0000000000000000e+00 -2.4893748497065883e+02 3.2595554440175846e+01 8.5415432062668497e+00 0 0 0
2327 233 5 0.0000000000000000e+00 -2.6261060014263666e+02 4.7947782801986520e+01 1.8222980083062364e+01 0 0 0
3929 359 7 0.0000000000000000e+00 -2.9473143616889053e+02 2.6087367431604623e+01 2.4336986778446526e+01 0 0 0
784 79 3 0.0000000000000000e+00 -2.7732392721690104e+02 4.0480834071555194e+01 1.1677312952930276e+01 1 0 0
1692 170 6 0.0000000000000000e+00 -2.5306048395203166e+02 1.4461968483475191e+01 6.8428540054975091e+00 0 0 0
3411 332 8 0.0000000000000000e+00 -2.4725610902415983e+02 4.2564687332526880e+01 3.8607131961963972e+01 0 0 0
1698 170 6 0.0000000000000000e+00 -2.4822680140764732e+02 2.3173137519542994e+01 4.0370955048090011e+01 0 0 0
4654 397 7 0.0000000000000000e+00 -2.5692655119052841e+02 1.3169800562356636e+01 4.2720728987916267e+01 0 0 0
1696 170 6 0.0000000000000000e+00 -2.4768530022420896e+02 2.3047178104081990e+01 2.5489361092418335e+01 0 0 0
593 60 2 0.0000000000000000e+00 -2.9234584271094536e+02 1.3215853564088484e+01 1.7990050714898867e+01 1 0 0
4652 397 8 0.0000000000000000e+00 -2.6548964641816389e+02 1.9767510139611939e+01 4.0200730022359366e+01 0 0 0
591 60 1 0.0000000000000000e+00 -2.9899640104234857e+02 2.6275604930010342e+01 5.1971699999999998e+00 1 0 0
2328 233 6 0.0000000000000000e+00 -2.6337217087886648e+02 4.6359493870842186e+01 8.1157851167724520e+00 0 0 0
2326 233 6 0.0000000000000000e+00 -2.6403042431566143e+02 4.2913930299496073e+01 2.7059198605647023e+01 0 0 0
2323 233 6 0.0000000000000000e+00 -2.6852729611104132e+02 4.6738309693031781e+01 4.0566050775138166e+01 0 0 0
592 60 2 0.0000000000000000e+00 -2.9348627303570879e+02 1.9887674379555168e+01 1.0439112432316930e+01 1 0 0
2325 233 6 0.0000000000000000e+00 -2.5838362572248502e+02 4.7425201280414356e+01 3.4490611776966368e+01 0 0 0
785 79 2 0.0000000000000000e+00 -2.7748975197152237e+02 4.4481216672290714e+01 2.0951611015260827e+01 1 0 0
4286 378 8 0.0000000000000000e+00 -2.4756500677087226e+02 4.5313545505418404e+01 1.5425846033811146e+01 0 0 0
808 81 6 0.0000000000000000e+00 -2.9955375085637775e+02 4.4168092449858733e+01 3.4344662814711185e+01 0 0 0
2621 263 4 0.0000000000000000e+00 -2.7674757296951486e+02 4.9586050991611479e+01 4.6819565681923523e+00 0 0 0
736 74 2 0.0000000000000000e+00 -1.9085857118872801e+02 3.5821285326951219e+01 1.2988094149195286e+01 0 0 0
3421 332 8 0.0000000000000000e+00 -2.3185531279473850e+02 1.1267309673544785e+01 3.3684202600289225e+01 0 0 0
750 75 3 0.0000000000000000e+00 -2.1988657654527987e+02 1.6421078143004653e+01 2.6368540054318281e+01 0 0 0
3420 332 8 0.0000000000000000e+00 -2.2988358946481210e+02 2.0072978132342456e+01 2.8715713448032364e+01 0 0 0
4287 378 7 0.0000000000000000e+00 -2.4408981384747551e+02 3.7666581672963993e+01 2.0676852967826392e+01 0 0 0
3417 332 8 0.0000000000000000e+00 -2.3956218240387804e+02 2.9883560222764277e+01 7.0607419077518170e+00 0 0 0
3418 332 8 0.0000000000000000e+00 -2.3981235789864590e+02 2.2608084052484163e+01 1.4221606361396882e+01 0 0 0
3419 332 7 0.0000000000000000e+00 -2.3753078515936085e+02 2.3999325251443633e+01 2.3906847284023389e+01 0 0 0
4289 378 8 0.0000000000000000e+00 -2.4161787557927823e+02 3.0539989090174405e+01 3.8574360397564703e+01 0 0 0
1691 170 4 0.0000000000000000e+00 -2.4353251835931522e+02 1.3627043120309045e+01 6.6053995049825911e+00 0 0 0
1752 176 6 0.0000000000000000e+00 -2.0834702648768445e+02 1.8281566234008181e+01 2.9103955414688475e+01 0 0 0
2763 277 6 0.0000000000000000e+00 -2.2672286468275178e+02 2.1427035478530023e+01 1.0469129790070536e+01 0 0 0
747 75 3 0.0000000000000000e+00 -2.0535331111125123e+02 3.6318280283669971e+01 2.8690766844182857e+01 0 0 0
2765 277 6 0.0000000000000000e+00 -2.2503934186550890e+02 3.3039338321216306e+01 2.6980826962597828e+01 0 0 0
2764 277 5 0.0000000000000000e+00 -2.2732100554341574e+02 2.7659037086427688e+01 1.8379283843728551e+01 0 0 0
2762 277 6 0.0000000000000000e+00 -2.1734975838672793e+02 2.4589126221756722e+01 8.8620126366044030e+00 0 0 0
2761 277 4 0.0000000000000000e+00 -2.0748930526619603e+02 2.6079194947123966e+01 8.7612414390354925e+00 0 0 0
748 75 2 0.0000000000000000e+00 -2.1102401262236336e+02 3.1595661522031918e+01 2.1786395100532818e+01 0 0 0
749 75 2 0.0000000000000000e+00 -2.1608035134139831e+02 2.3290949853338397e+01 2.0119882107760411e+01 0 0 0
2471 248 4 0.0000000000000000e+00 -2.2858793449594950e+02 4.0330814202419383e+01 1.2177521319583068e+01 0 0 0
4288 378 8 0.0000000000000000e+00 -2.4200032895837504e+02 3.5534450142720836e+01 3.0198579364550881e+01 0 0 0
738 74 2 0.0000000000000000e+00 -2.0959345612239804e+02 3.9201165819026549e+01 1.6052096170569083e+01 0 0 0
739 74 2 0.0000000000000000e+00 -2.1908080960420327e+02 3.5396481683147577e+01 1.5412844115096394e+01 0 0 0
737 74 3 0.0000000000000000e+00 -2.0097483883224248e+02 3.5110566469406585e+01 1.2942923005024442e+01 0 0 0
740 74 3 0.0000000000000000e+00 -2.2369722355570948e+02 3.2318309749534450e+01 6.5903089226898155e+00 0 0 0
1760 176 5 0.0000000000000000e+00 -2.3599390684286124e+02 4.3153608297703585e+01 2.7197749705676355e+01 0 0 0
1753 176 6 0.0000000000000000e+00 -2.1395895366229655e+02 1.9771467223158172e+01 3.7131128641330925e+01 0 0 0
1754 176 5 0.0000000000000000e+00 -2.1063398584353970e+02 2.8366737864270021e+01 3.3107083245775257e+01 0 0 0
2401 241 4 0.0000000000000000e+00 -2.0728119429160435e+02 4.5754105814581109e+01 2.3087783001067088e+01 0 0 0
1038 104 6 0.0000000000000000e+00 -1.9565106190703983e+02 1.4441685685559204e+01 3.8522770817335733e+01 0 0 0
2766 277 6 0.0000000000000000e+00 -2.2282658563634570e+02 3.3413717013261049e+01 3.6419640347281778e+01 0 0 0
3508 337 7 0.0000000000000000e+00 -1.9973879395963249e+02 3.1961397136934327e+01 3.4114390875788928e+01 0 0 0
741 75 1 0.0000000000000000e+00 -2.1258847437373592e+02 3.3402823004725441e+01 5.0522299999999998e+00 0 0 0
742 75 2 0.0000000000000000e+00 -2.1770688893306993e+02 4.2416469898715263e+01 8.4274134507053962e+00 0 0 0
3509 337 8 0.0000000000000000e+00 -1.9915781025536646e+02 2.2081705357251185e+01 3.2015819055159888e+01 0 0 0
1755 176 6 0.0000000000000000e+00 -2.1160990602772580e+02 3.5041572190862794e+01 4.0523010610609887e+01 0 0 0
3510 337 8 0.0000000000000000e+00 -1.9676002040879780e+02 1.3112849256070744e+01 2.7730866233102116e+01 0 0 0
1759 176 6 0.0000000000000000e+00 -2.3111518926308730e+02 4.0758507071269641e+01 3.5748531536148235e+01 0 0 0
2472 248 6 0.0000000000000000e+00 -2.3829202894399305e+02 4.2405756149980490e+01 9.5536618248822016e+00 0 0 0
2160 216 5 0.0000000000000000e+00 -1.9289760267506313e+02 4.8107148424001196e+01 3.4506354038743211e+01 0 0 0
746 75 2 0.0000000000000000e+00 -2.1208323805906255e+02 4.2615046012116778e+01 3.4016436265133848e+01 0 0 0
4420 385 7 0.0000000000000000e+00 -2.2919049704730048e+02 2.1797387763217458e+01 4.2012742529389030e+01 0 0 0
3507 337 8 0.0000000000000000e+00 -2.0466628118742776e+02 2.9436011128591051e+01 4.2606089309100192e+01 0 0 0
4419 385 8 0.0000000000000000e+00 -2.2256432371061899e+02 1.4582654896870116e+01 3.9556664770960872e+01 0 0 0
745 75 2 0.0000000000000000e+00 -2.1847462654193731e+02 4.9154315318552783e+01 3.0426700980120351e+01 0 0 0
743 75 2 0.0000000000000000e+00 -2.2036312978506945e+02 4.7807381727205261e+01 1.6407863204646990e+01 0 0 0
4285 378 8 0.0000000000000000e+00 -2.3850597601126583e+02 4.9547815949529628e+01 1.8086472205074109e+01 0 0 0
2090 209 5 0.0000000000000000e+00 -2.8406422821338163e+02 -1.6421806349157498e+02 8.2024642415383880e+01 0 0 0
2089 209 6 0.0000000000000000e+00 -2.8963928444583962e+02 -1.5537355146491811e+02 8.0242372552430481e+01 0 0 0
1967 197 5 0.0000000000000000e+00 -2.8801047858961533e+02 -7.0980185054250953e+01 5.7055098724686964e+01 0 0 0
19 2 2 0.0000000000000000e+00 -1.9765407420242835e+02 -7.8894968621696592e+01 5.2283513615705459e+01 0 0 0
20 2 3 0.0000000000000000e+00 -2.0458529229182784e+02 -7.8340660337196724e+01 5.8990609099028632e+01 0 0 0
4073 366 8 0.0000000000000000e+00 -2.9771224967378316e+02 -5.5983374492345440e+01 8.2703880570219454e+01 0 0 0
1434 144 5 0.0000000000000000e+00 -2.5386821841328580e+02 -3.5573496582838018e+01 4.5804786046769266e+01 0 0 0
1968 197 6 0.0000000000000000e+00 -2.9364626395475170e+02 -6.6752206420754661e+01 4.9987286518566783e+01 0 0 0
1963 197 6 0.0000000000000000e+00 -2.8941969528196995e+02 -4.3614859545151795e+01 4.8367471009391878e+01 0 0 0
759 76 2 0.0000000000000000e+00 -2.8568910378822227e+02 -5.7333591035495921e+01 4.5705664994010007e+01 0 0 0
4326 380 8 0.0000000000000000e+00 -2.8416684442608562e+02 -3.6902951504385179e+01 5.2879078252765325e+01 1 0 0
4322 380 7 0.0000000000000000e+00 -2.8942969099392263e+02 -5.0551679989357723e+01 6.0114186851815667e+01 1 0 0
1966 197 6 0.0000000000000000e+00 -2.8025553356993004e+02 -6.5580148367443456e+01 5.6971812269019338e+01 0 0 0
1964 197 5 0.0000000000000000e+00 -2.8178013528255019e+02 -4.7235696852812907e+01 5.2777987570692851e+01 0 0 0
1965 197 6 0.0000000000000000e+00 -2.7883217247494503e+02 -5.6425059984589403e+01 5.4348636943006653e+01 0 0 0
4327 380 8 0.0000000000000000e+00 -2.9261403658455617e+02 -3.3374828047996665e+01 4.8918204897310162e+01 1 0 0
4323 380 8 0.0000000000000000e+00 -2.8850947102180402e+02 -5.4028769235447996e+01 6.9232787546799869e+01 1 0 0
1437 144 5 0.0000000000000000e+00 -2.4960768805530722e+02 -3.1574004975618294e+01 5.8926871262818487e+01 0 0 0
4325 380 7 0.0000000000000000e+00 -2.8082015440425369e+02 -3.9059467115740794e+01 6.2164764914836859e+01 1 0 0
4324 380 8 0.0000000000000000e+00 -2.8185458916864144e+02 -4.6233777365076676e+01 6.9035715672081594e+01 1 0 0
2416 242 6 0.0000000000000000e+00 -2.9705177814576803e+02 -3.5741717453680245e+01 6.1956175410598874e+01 0 0 0
2415 242 6 0.0000000000000000e+00 -2.8905970799234154e+02 -3.0273061472356321e+01 6.0954172260606555e+01 0 0 0
4065 366 7 0.0000000000000000e+00 -2.9745169031709304e+02 -2.8768367220003373e+01 8.1132968280513907e+01 0 0 0
5570 470 10 0.0000000000000000e+00 -2.4686414541851101e+02 -4.3524347783485922e+01 5.2638798177903588e+01 1 0 0
1436 144 6 0.0000000000000000e+00 -2.5212418703111948e+02 -4.1207872620600057e+01 6.2867631431898936e+01 0 0 0
1435 144 6 0.0000000000000000e+00 -2.5820100019005804e+02 -3.9065364038268648e+01 5.4852286887953738e+01 0 0 0
2413 242 6 0.0000000000000000e+00 -2.7401626396550699e+02 -3.2232475086580529e+01 5.2292942160245566e+01 0 0 0
2414 242 5 0.0000000000000000e+00 -2.7913762480216985e+02 -2.8511744802349387e+01 5.9974417238660529e+01 0 0 0
1970 197 5 0.0000000000000000e+00 -2.9959465847428874e+02 -4.7882268093657245e+01 4.7898250608346586e+01 0 0 0
4072 366 8 0.0000000000000000e+00 -2.8730109167446818e+02 -5.7422122849721973e+01 8.3730277076247717e+01 0 0 0
4066 366 8 0.0000000000000000e+00 -2.8802430570226278e+02 -3.1712867803924816e+01 8.2661721906774176e+01 0 0 0
1969 197 6 0.0000000000000000e+00 -2.9604656723747524e+02 -5.6891002537161540e+01 4.6505939763662276e+01 0 0 0
3428 332 9 0.0000000000000000e+00 -2.4173194349647909e+02 -4.1111874531067727e+01 4.2891981188745476e+01 0 0 0
2590 259 5 0.0000000000000000e+00 -1.9052777459152608e+02 -4.4408713059285930e+01 4.3602105594248840e+01 0 0 0
1367 137 5 0.0000000000000000e+00 -1.9470524719333457e+02 -6.4222349525496412e+01 5.1109083929951098e+01 0 0 0
1366 137 6 0.0000000000000000e+00 -1.9398284208375193e+02 -5.4248994828548220e+01 5.2291547746553682e+01 0 0 0
5336 433 8 0.0000000000000000e+00 -2.2233098905996005e+02 -4.1236858089225514e+01 4.6782923002706156e+01 0 0 0
1979 198 6 0.0000000000000000e+00 -1.9544803411468206e+02 -4.3736181949006983e+01 6.1607016192168210e+01 0 0 0
1978 198 6 0.0000000000000000e+00 -1.9995743235834274e+02 -3.6452269826928955e+01 5.6503425332737628e+01 0 0 0
1980 198 5 0.0000000000000000e+00 -1.9548734893193935e+02 -4.5528872013322093e+01 7.1469805125592799e+01 0 0 0
5569 470 11 0.0000000000000000e+00 -2.4376534132286179e+02 -3.3744966684305545e+01 5.1877852627702040e+01 1 0 0
1440 144 5 0.0000000000000000e+00 -2.2849326612210700e+02 -3.0570351668033361e+01 6.3319902725512947e+01 0 0 0
1439 144 6 0.0000000000000000e+00 -2.3417303636943123e+02 -3.6493649805141033e+01 5.7032895278878669e+01 0 0 0
1977 198 5 0.0000000000000000e+00 -2.0120902336800742e+02 -2.9498014721916611e+01 4.9043243579412689e+01 0 0 0
5337 433 8 0.0000000000000000e+00 -2.2594972353811775e+02 -3.2852690601818139e+01 5.0010945262583242e+01 0 0 0
1438 144 6 0.0000000000000000e+00 -2.4065013542450134e+02 -3.0621688363753769e+01 6.2076396428235100e+01 0 0 0
5339 433 8 0.0000000000000000e+00 -2.1305116917096365e+02 -2.9700848320489492e+01 6.0112116765198884e+01 0 0 0
4647 397 8 0.0000000000000000e+00 -2.5249806899159671e+02 -1.5546701516031247e+01 4.4127480563020889e+01 0 0 0
4645 397 7 0.0000000000000000e+00 -2.4523908236504511e+02 -2.3586072984547055e+01 4.2972638591932920e+01 0 0 0
598 60 2 0.0000000000000000e+00 -2.8593536267537394e+02 -7.6133500307603219e+00 4.3793137852063197e+01 1 0 0
668 67 2 0.0000000000000000e+00 -2.8617564811602813e+02 -2.4811869733896110e+01 4.4822305309074700e+01 1 0 0
599 60 2 0.0000000000000000e+00 -2.7640845097795125e+02 -5.8840268769808715e+00 4.4632351833718495e+01 1 0 0
669 67 2 0.0000000000000000e+00 -2.9290270095440246e+02 -1.7484928417937926e+01 4.7554011019423434e+01 1 0 0
974 98 5 0.0000000000000000e+00 -2.9913537723641815e+02 -2.5493841155399096e+01 7.0252754890603782e+01 0 0 0
3026 303 6 0.0000000000000000e+00 -2.5041924127119975e+02 3.3891534246124437e+00 4.6380925225873817e+01 0 0 0
670 67 3 0.0000000000000000e+00 -2.9019746652030301e+02 -1.3856499347655122e+01 5.6374081013755593e+01 1 0 0
2412 242 6 0.0000000000000000e+00 -2.7397850640579486e+02 -2.3246238176045072e+01 4.7849355580826554e+01 0 0 0
1822 183 6 0.0000000000000000e+00 -2.5840610036753048e+02 -5.2201559247907703e+00 5.1483896642724311e+01 1 0 0
1823 183 6 0.0000000000000000e+00 -2.6734680967984872e+02 -4.0926595533840571e+00 5.4937449111966082e+01 1 0 0
1824 183 5 0.0000000000000000e+00 -2.6437764492263329e+02 -1.0194711998090904e+00 6.4125337235594884e+01 1 0 0
971 98 4 0.0000000000000000e+00 -2.9569735221628633e+02 -7.0028756695834016e+00 5.0800124532731289e+01 0 0 0
1825 183 6 0.0000000000000000e+00 -2.6113898375849993e+02 1.8459670427695158e+00 7.3199875041662480e+01 1 0 0
4656 397 8 0.0000000000000000e+00 -2.6233341271933136e+02 5.4345174993912044e+00 5.6869636135527543e+01 0 0 0
4657 397 7 0.0000000000000000e+00 -2.5384936134150180e+02 1.8923417882211546e+00 5.9718419700264569e+01 0 0 0
1826 183 6 0.0000000000000000e+00 -2.5297890764380591e+02 6.4529372007701635e+00 7.6247851243715829e+01 1 0 0
1827 183 5 0.0000000000000000e+00 -2.4671059000313639e+02 3.0699359288551449e+00 6.8621110422645927e+01 1 0 0
4658 397 8 0.0000000000000000e+00 -2.5148137542704310e+02 -7.2490566735356570e+00 6.0348423486435458e+01 0 0 0
972 98 6 0.0000000000000000e+00 -2.9791223592161822e+02 -8.2749363757659147e+00 6.0559702810827261e+01 0 0 0
3027 303 5 0.0000000000000000e+00 -2.5345148772325439e+02 1.0502873084956208e+01 5.2332836515927120e+01 0 0 0
4067 366 8 0.0000000000000000e+00 -2.8093591412976076e+02 -2.5089483376678636e+01 8.4801341647178390e+01 0 0 0
973 98 6 0.0000000000000000e+00 -2.9952124270501270e+02 -1.6542986755895910e+01 6.6719001865589675e+01 0 0 0
1976 198 6 0.0000000000000000e+00 -1.9516655167436514e+02 -2.3087440297430366e+01 4.4286274284766790e+01 0 0 0
5568 470 10 0.0000000000000000e+00 -2.4102413277544323e+02 -2.4388038320304794e+01 5.2513662810178630e+01 1 0 0
5630 490 10 0.0000000000000000e+00 -1.9414591828414797e+02 -1.7192596882809550e+01 6.0616590232456076e+01 0 0 0