LAMMPS data file via write_data, version 5 Jun 2019, timestep = 460000000

5660 atoms
11 atom types
5914 bonds
7 bond types
4660 angles
4 angle types

-3.0000000000000000e+02 3.0000000000000000e+02 xlo xhi
-3.0000000000000000e+02 3.0000000000000000e+02 ylo yhi
0.0000000000000000e+00 3.0000000000000000e+02 zlo zhi

Masses

1 1000
2 450
3 450
4 11000
5 7000
6 450
7 450
8 450
9 450
10 450
11 20000

Pair Coeffs # lj/cut

1 0.24 10
2 0.24 10
3 0.24 10
4 0.24 10
5 0.24 10
6 0.24 10
7 0.24 10
8 0.24 10
9 0.24 10
10 0.24 10
11 0.24 30

Angle Coeffs # cosine

1 1
2 1
3 1
4 1

Atoms # full

4347 381 7 0.0000000000000000e+00 -2.3888391258622690e+02 -9.7596880467070605e+01 2.5888436401717890e+01 0 0 0
4346 381 8 0.0000000000000000e+00 -2.2960719849179637e+02 -9.7444483735445417e+01 2.9322195283087492e+01 0 0 0
4348 381 8 0.0000000000000000e+00 -2.4248694923774067e+02 -1.0231962632034571e+02 3.4516457566121638e+01 0 0 0
2766 277 6 0.0000000000000000e+00 -2.6053360790593320e+02 -9.0671832754352764e+01 1.8286425802629545e+01 0 0 0
2768 277 6 0.0000000000000000e+00 -2.6967453768618287e+02 -7.9894635805458591e+01 2.3691117696403147e+01 0 0 0
2767 277 5 0.0000000000000000e+00 -2.7002536155408546e+02 -8.8927757355783484e+01 1.9810794055907493e+01 0 0 0
2765 277 6 0.0000000000000000e+00 -2.5037273602283136e+02 -8.8984319459385034e+01 1.9458790514344024e+01 0 0 0
2769 277 6 0.0000000000000000e+00 -2.7860736450639598e+02 -8.0333878426533886e+01 2.7701877433229871e+01 0 0 0
2764 277 5 0.0000000000000000e+00 -2.4526879802483367e+02 -8.3115773129900333e+01 1.2642746341809795e+01 0 0 0
2763 277 6 0.0000000000000000e+00 -2.3717485917281647e+02 -8.6517287442453792e+01 1.8367386627180846e+01 0 0 0
2770 277 5 0.0000000000000000e+00 -2.8899538010567716e+02 -8.0236652479969322e+01 2.7663729280701915e+01 0 0 0
4350 381 7 0.0000000000000000e+00 -2.4332640951967477e+02 -8.4450068802203759e+01 3.2902006217972364e+01 0 0 0
4349 381 8 0.0000000000000000e+00 -2.4666663529410360e+02 -9.3479059979094927e+01 3.4554042643572913e+01 0 0 0
1827 183 5 0.0000000000000000e+00 -2.5141787619518715e+02 -7.9454456127373007e+01 2.6564348802740430e+01 1 0 0
1826 183 6 0.0000000000000000e+00 -2.5860398270781423e+02 -7.3493985617806686e+01 2.9968505601443894e+01 1 0 0
1828 183 6 0.0000000000000000e+00 -2.4199627535548095e+02 -7.7075576378581843e+01 2.3391906820856079e+01 1 0 0
1829 183 6 0.0000000000000000e+00 -2.3260630239464388e+02 -7.5493453259179120e+01 2.7184120192322187e+01 1 0 0
995 100 6 0.0000000000000000e+00 -2.7592610671180319e+02 -7.2515350830541152e+01 3.8251522437388140e+01 0 0 0
4351 381 8 0.0000000000000000e+00 -2.4180284181260615e+02 -7.4858317666217786e+01 3.2953824882839982e+01 0 0 0
994 100 5 0.0000000000000000e+00 -2.7785693528255695e+02 -7.1054511442881690e+01 2.8957335461286675e+01 0 0 0
4328 380 7 0.0000000000000000e+00 -2.9494110744745137e+02 -7.1425327038982601e+01 2.1091851436116897e+01 1 0 0
1825 183 6 0.0000000000000000e+00 -2.6824242117363906e+02 -7.0461864064537707e+01 3.1005064904888165e+01 1 0 0
993 100 6 0.0000000000000000e+00 -2.8276153765725348e+02 -6.9183688515655831e+01 1.9690099998661797e+01 0 0 0
572 58 2 0.0000000000000000e+00 -2.3063156279488882e+02 -6.8631643327552581e+01 8.4016007597218465e+00 0 0 0
2762 277 6 0.0000000000000000e+00 -2.3005719291081436e+02 -8.7278579213389122e+01 2.5053140776747348e+01 0 0 0
4326 380 8 0.0000000000000000e+00 -2.9446925254632214e+02 -7.4932561647728832e+01 3.5882400627562710e+01 1 0 0
4325 380 7 0.0000000000000000e+00 -2.9551092251957425e+02 -8.3701789342729654e+01 3.9836650091882795e+01 1 0 0
4344 381 7 0.0000000000000000e+00 -2.3039126667296716e+02 -1.0130083057481525e+02 3.8575348325818076e+01 0 0 0
4327 380 8 0.0000000000000000e+00 -2.8853575502671282e+02 -7.0340010680385774e+01 2.8677995698165422e+01 1 0 0
4352 381 8 0.0000000000000000e+00 -2.3999052341289797e+02 -6.6553149530102530e+01 3.8663433387315571e+01 0 0 0
383 39 2 0.0000000000000000e+00 -2.5527909552568516e+02 -6.5447901238729202e+01 1.8868758340481140e+01 0 0 0
417 42 3 0.0000000000000000e+00 -2.9641113194361401e+02 -5.6104606312461705e+01 1.0923793549632590e+01 1 0 0
573 58 2 0.0000000000000000e+00 -2.3934270331045215e+02 -6.4970978359420485e+01 1.1774663513571964e+01 0 0 0
1011 102 4 0.0000000000000000e+00 -2.6186900450533687e+02 -6.4434337900624158e+01 3.6780801837775847e+01 1 0 0
992 100 6 0.0000000000000000e+00 -2.8522115647374955e+02 -6.1722172953575637e+01 1.3683903228357547e+01 0 0 0
384 39 3 0.0000000000000000e+00 -2.4949341663853113e+02 -5.9721159818475201e+01 2.4625968682132964e+01 0 0 0
385 39 2 0.0000000000000000e+00 -2.4056285187139790e+02 -5.7381029859803654e+01 2.8264193186206924e+01 0 0 0
578 58 2 0.0000000000000000e+00 -2.6632640688818680e+02 -4.4287881815988484e+01 3.3154584682806387e+01 0 0 0
577 58 3 0.0000000000000000e+00 -2.6443774715606764e+02 -5.4159964686811250e+01 3.3152449375885098e+01 0 0 0
579 58 2 0.0000000000000000e+00 -2.7002395446728588e+02 -3.5676442332644747e+01 3.1614073316696668e+01 0 0 0
381 39 1 0.0000000000000000e+00 -2.6602299157713963e+02 -5.8361838053357907e+01 5.0285799999999998e+00 0 0 0
382 39 2 0.0000000000000000e+00 -2.6379953337723418e+02 -6.4250357801755996e+01 1.3637944002211208e+01 0 0 0
576 58 2 0.0000000000000000e+00 -2.6063474080202042e+02 -5.4801868746445770e+01 2.3924642050902392e+01 0 0 0
575 58 2 0.0000000000000000e+00 -2.5519816239811433e+02 -5.5577350278602971e+01 1.5563053944545917e+01 0 0 0
574 58 3 0.0000000000000000e+00 -2.4723373849912221e+02 -5.8992278879582756e+01 9.7062166848181128e+00 0 0 0
1824 183 5 0.0000000000000000e+00 -2.6843440695194442e+02 -6.2637880125392520e+01 2.4873130390343995e+01 1 0 0
1822 183 6 0.0000000000000000e+00 -2.8324226403054593e+02 -5.4383575772778435e+01 2.7186721466503727e+01 1 0 0
1823 183 6 0.0000000000000000e+00 -2.7873430331747272e+02 -6.2216122242253292e+01 2.3478989237925401e+01 1 0 0
1821 183 4 0.0000000000000000e+00 -2.8961806999165742e+02 -4.7093308360679870e+01 2.4819511256976178e+01 1 0 0
991 100 4 0.0000000000000000e+00 -2.8673623396186326e+02 -5.7023296561990172e+01 4.7001316409251626e+00 0 0 0
971 98 4 0.0000000000000000e+00 -2.5126866541600268e+02 -5.1532522477782130e+01 3.0759553738915304e+01 0 0 0
2591 260 4 0.0000000000000000e+00 -2.3990324412954885e+02 -4.4393338526519010e+01 2.0919062399520346e+01 1 0 0
386 39 2 0.0000000000000000e+00 -2.3487771051764534e+02 -5.2184611044859118e+01 2.2047077841726118e+01 0 0 0
972 98 6 0.0000000000000000e+00 -2.4499162840851679e+02 -4.7146911827781473e+01 3.7175975480108235e+01 0 0 0
2592 260 6 0.0000000000000000e+00 -2.3144223493463025e+02 -3.9111357543785623e+01 1.7790611181762348e+01 1 0 0
387 39 3 0.0000000000000000e+00 -2.4093991876772500e+02 -5.2757542216031013e+01 1.3889318305947844e+01 0 0 0
388 39 2 0.0000000000000000e+00 -2.4843716681659780e+02 -4.5373888464143597e+01 1.2918989623261117e+01 0 0 0
62 7 2 0.0000000000000000e+00 -2.8122254923255838e+02 -4.9987900919434082e+01 1.3865306288422342e+01 1 0 0
390 39 3 0.0000000000000000e+00 -2.5176446770310321e+02 -4.0429513926824590e+01 2.8853163025065520e+01 0 0 0
389 39 2 0.0000000000000000e+00 -2.5159367205216944e+02 -4.8328719640063269e+01 2.2021254155644890e+01 0 0 0
973 98 6 0.0000000000000000e+00 -2.3615052878795885e+02 -5.0045376691322872e+01 3.9639237253969831e+01 0 0 0
61 7 1 0.0000000000000000e+00 -2.7720490323560665e+02 -5.3470464242826502e+01 5.0072700000000001e+00 1 0 0
580 58 3 0.0000000000000000e+00 -2.6933457868118285e+02 -3.2069056157228779e+01 4.1147107475544665e+01 0 0 0
937 94 5 0.0000000000000000e+00 -2.7564629411298404e+02 -5.1348471733795961e+01 3.4882529285297906e+01 1 0 0
3403 331 7 0.0000000000000000e+00 -2.7878350257962995e+02 -3.9791227206623546e+01 3.2771654698821813e+01 0 0 0
63 7 2 0.0000000000000000e+00 -2.7794925120056939e+02 -4.5125752512982672e+01 2.2212691450076893e+01 1 0 0
420 42 3 0.0000000000000000e+00 -2.9308024272453400e+02 -5.4789537675201323e+01 3.2208999747713428e+01 1 0 0
3404 331 8 0.0000000000000000e+00 -2.8784118989559533e+02 -4.2846717887503118e+01 3.6019243935904498e+01 0 0 0
64 7 3 0.0000000000000000e+00 -2.8048566683840846e+02 -3.5395601720286322e+01 2.1687398522163356e+01 1 0 0
2751 276 4 0.0000000000000000e+00 -2.5035331222918296e+02 -6.1619548686469876e+01 3.5839872871609579e+01 0 0 0
3402 331 8 0.0000000000000000e+00 -2.8135018375715163e+02 -3.7058335636271387e+01 4.2295845278973133e+01 0 0 0
4287 378 7 0.0000000000000000e+00 -2.4316831399352714e+02 -3.7836625655182132e+01 3.8098156875389641e+01 0 0 0
4286 378 8 0.0000000000000000e+00 -2.3809860128704230e+02 -4.1662060032901955e+01 3.0729249458930806e+01 0 0 0
936 94 6 0.0000000000000000e+00 -2.7037755222479854e+02 -5.8811155050654669e+01 3.8933287102485671e+01 1 0 0
4285 378 8 0.0000000000000000e+00 -2.2898582615148325e+02 -4.4448056159175415e+01 3.2278354215437638e+01 0 0 0
3153 316 6 0.0000000000000000e+00 -2.9461680067852950e+02 -3.5747956265466939e+01 3.0711194963589971e+01 1 0 0
4353 381 7 0.0000000000000000e+00 -2.3083979922189801e+02 -6.3833934196889047e+01 3.7122375817348711e+01 0 0 0
931 94 4 0.0000000000000000e+00 -2.7211406389839868e+02 -4.2745676531527565e+01 4.1479133682711229e+01 1 0 0
2752 276 6 0.0000000000000000e+00 -2.5339254111091194e+02 -5.5697318930294031e+01 4.2823899198036983e+01 0 0 0
4288 378 8 0.0000000000000000e+00 -2.5239999502781583e+02 -3.5030855956279247e+01 3.7735921287514692e+01 0 0 0
418 42 2 0.0000000000000000e+00 -2.9481501978681143e+02 -5.4657486065255085e+01 2.0867624947178353e+01 1 0 0
3155 316 6 0.0000000000000000e+00 -2.9720211816366708e+02 -4.6961837610824595e+01 4.1618509540134042e+01 1 0 0
3156 316 6 0.0000000000000000e+00 -2.9683173185762871e+02 -5.6647739072734112e+01 4.0094701468300777e+01 1 0 0
3152 316 6 0.0000000000000000e+00 -2.9098416306077598e+02 -3.1967587224043605e+01 2.2427791161427205e+01 1 0 0
3405 331 8 0.0000000000000000e+00 -2.9198600052237697e+02 -3.7261401855566838e+01 4.2560218142081958e+01 0 0 0
419 42 2 0.0000000000000000e+00 -2.9986802465618615e+02 -5.9715124808330906e+01 2.7100591560123597e+01 1 0 0
1830 183 5 0.0000000000000000e+00 -2.2709747200845555e+02 -6.6778327405888390e+01 2.6803621651893806e+01 1 0 0
2133 214 6 0.0000000000000000e+00 -2.2649965894663890e+02 -2.9938192787481359e+01 2.8634946346139376e+01 0 0 0
69 7 2 0.0000000000000000e+00 -2.9893912617989469e+02 1.5757965685527371e+00 2.4501781064040692e+01 1 0 0
68 7 2 0.0000000000000000e+00 -2.9567610504497515e+02 -6.4639087763484753e+00 1.9413177822342114e+01 1 0 0
2136 214 6 0.0000000000000000e+00 -2.4620600263331590e+02 -2.5750711161369157e+01 3.6802654333836315e+01 0 0 0
2135 214 6 0.0000000000000000e+00 -2.4089570410513892e+02 -1.7980188602040581e+01 3.2972640693368440e+01 0 0 0
2134 214 5 0.0000000000000000e+00 -2.3307888750026780e+02 -2.2988468291502070e+01 3.0609779940931350e+01 0 0 0
66 7 2 0.0000000000000000e+00 -2.8073280658097792e+02 -1.6908708023172984e+01 2.7246027140884149e+01 1 0 0
4289 378 8 0.0000000000000000e+00 -2.5649308906571883e+02 -2.5728934078219186e+01 3.8631155347851724e+01 0 0 0
65 7 2 0.0000000000000000e+00 -2.8110469922188372e+02 -2.7097912687780408e+01 2.7070564154401957e+01 1 0 0
1255 126 6 0.0000000000000000e+00 -2.3648898453665598e+02 -2.8595775018571055e+00 2.0636853539551492e+01 0 0 0
1259 126 6 0.0000000000000000e+00 -2.5845624212232082e+02 -4.6172682668606395e+00 2.5229123492895205e+01 0 0 0
1258 126 6 0.0000000000000000e+00 -2.6342590804722784e+02 -2.4274017090744944e+00 1.6442885146308363e+01 0 0 0
1256 126 6 0.0000000000000000e+00 -2.4433243427378412e+02 -3.0521190474412392e+00 1.4568572691859970e+01 0 0 0
1260 126 5 0.0000000000000000e+00 -2.5770538548123858e+02 -8.8658486362767253e+00 3.4202667054776612e+01 0 0 0
1257 126 5 0.0000000000000000e+00 -2.5384211276648981e+02 -5.8558848218072548e+00 1.5134075188664879e+01 0 0 0
1253 126 6 0.0000000000000000e+00 -2.3855034009961281e+02 -2.6213712571062993e+00 3.1518781492502022e+01 0 0 0
1254 126 5 0.0000000000000000e+00 -2.3599024489039218e+02 -1.0851221990694132e+01 2.6903937324613185e+01 0 0 0
2142 215 6 0.0000000000000000e+00 -2.7454502368897499e+02 -6.5473901798251930e+00 1.6321411968696879e+01 0 0 0
2141 215 4 0.0000000000000000e+00 -2.8462360717020931e+02 -6.2507889009337170e+00 1.7509162531860316e+01 0 0 0
3822 353 8 0.0000000000000000e+00 -2.7062190501405343e+02 -6.9717172638415992e+00 2.5305857616704625e+01 0 0 0
591 60 1 0.0000000000000000e+00 -2.5321803485649517e+02 6.6026642648633149e-01 5.1971699999999998e+00 1 0 0
3821 353 7 0.0000000000000000e+00 -2.7565097506545351e+02 1.1244510331707449e+00 2.8563261489803917e+01 0 0 0
2143 215 6 0.0000000000000000e+00 -2.7536128840327717e+02 1.8029167364753640e+00 1.0338055140396747e+01 0 0 0
4290 378 7 0.0000000000000000e+00 -2.5326037491446402e+02 -1.8674647930516727e+01 3.2358286943113804e+01 0 0 0
4291 378 8 0.0000000000000000e+00 -2.4825271589814085e+02 -1.1461263803565219e+01 3.7137418306094261e+01 0 0 0
4292 378 8 0.0000000000000000e+00 -2.3983033669662143e+02 -1.2339918703720672e+01 4.1333990013443916e+01 0 0 0
3151 316 4 0.0000000000000000e+00 -2.8548862657227613e+02 -2.5536440382341052e+01 1.7094112710558822e+01 1 0 0
2144 215 5 0.0000000000000000e+00 -2.8142437508212657e+02 4.1047153767749336e+00 1.8523620066329382e+01 0 0 0
2147 215 5 0.0000000000000000e+00 -2.9215958649967956e+02 5.2659117785398974e+00 3.6510761147576446e+01 0 0 0
67 7 3 0.0000000000000000e+00 -2.8968342993686366e+02 -1.3837343245585187e+01 2.3744177451511664e+01 1 0 0
2670 267 5 0.0000000000000000e+00 -2.9639090771213483e+02 -7.0730117016402714e+00 3.4753823600463946e+01 1 0 0
753 76 2 0.0000000000000000e+00 -2.8421321129356079e+02 2.6163981608017917e+00 6.2581668053513990e+00 0 0 0
3826 353 8 0.0000000000000000e+00 -2.5460702589954442e+02 4.4667806653402575e+00 3.6198749207811638e+01 0 0 0
1252 126 6 0.0000000000000000e+00 -2.3835534281434411e+02 6.7785644138247942e+00 2.8408765802750683e+01 0 0 0
2471 248 4 0.0000000000000000e+00 -2.8326808166575387e+02 6.8807088541380690e+00 3.7637410097917623e+01 0 0 0
2145 215 6 0.0000000000000000e+00 -2.8729408327496475e+02 -7.6105068432623643e-02 2.5626673124929695e+01 0 0 0
754 76 3 0.0000000000000000e+00 -2.9365510734180566e+02 -1.3117962119635626e-01 4.7789958005187581e+00 0 0 0
3825 353 8 0.0000000000000000e+00 -2.6320334555546998e+02 6.9878119968091363e+00 3.1149228147463194e+01 0 0 0
4608 395 8 0.0000000000000000e+00 -2.9026055514833581e+02 -2.2162160371317306e+01 3.9442001212193880e+01 0 0 0
3823 353 8 0.0000000000000000e+00 -2.6855966951976887e+02 -7.7442326818083593e+00 3.4955392780123070e+01 0 0 0
4609 395 8 0.0000000000000000e+00 -2.8043438734426496e+02 -2.4965306501788255e+01 4.1591331544414274e+01 0 0 0
3824 353 7 0.0000000000000000e+00 -2.6827611959568884e+02 2.0733560330192207e+00 3.7812677892446168e+01 0 0 0
4607 395 7 0.0000000000000000e+00 -2.9912317923360763e+02 -1.7971906142724183e+01 3.5983422263046755e+01 0 0 0
600 60 3 0.0000000000000000e+00 -2.5548069982269783e+02 4.1854034086314247e+00 2.4019228771601529e+01 1 0 0
4293 378 7 0.0000000000000000e+00 -2.3116394662148173e+02 -9.4492232675549168e+00 3.7510662211945075e+01 0 0 0
592 60 2 0.0000000000000000e+00 -2.4820574392692086e+02 9.2386584844932216e+00 7.5792582148126133e+00 1 0 0
2146 215 6 0.0000000000000000e+00 -2.9204640383745686e+02 8.8263749944791812e+00 2.7283225510902838e+01 0 0 0
2148 215 6 0.0000000000000000e+00 -2.8787341626160736e+02 -1.3776380646375412e+00 4.2749843930346884e+01 0 0 0
4776 403 8 0.0000000000000000e+00 -2.2859225139107920e+02 6.9550635435923001e+00 3.6369063479187950e+01 0 0 0
3025 303 6 0.0000000000000000e+00 -2.5768679593295099e+02 4.8020786320587547e+01 3.8577688174974504e+01 0 0 0
3022 303 6 0.0000000000000000e+00 -2.7074175457142724e+02 4.7033274450393336e+01 2.4048077462875657e+01 0 0 0
313 32 2 0.0000000000000000e+00 -2.3068794757082890e+02 4.8097291009504730e+01 1.3368522666339594e+01 0 0 0
3820 353 8 0.0000000000000000e+00 -2.8023956572680606e+02 1.0041764618243967e+01 2.7706435272524619e+01 0 0 0
599 60 2 0.0000000000000000e+00 -2.5063238182164878e+02 1.1443638477305138e+01 1.8451735367028846e+01 1 0 0
3092 310 6 0.0000000000000000e+00 -2.3053377227537368e+02 1.4199626668904090e+01 4.7840815428560282e+00 0 0 0
752 76 2 0.0000000000000000e+00 -2.9026471865320894e+02 9.8701101616398592e+00 1.0616404072033218e+01 0 0 0
4064 366 8 0.0000000000000000e+00 -2.6668229287330803e+02 1.6123162590483190e+01 1.8638428615975290e+01 0 0 0
598 60 2 0.0000000000000000e+00 -2.4800215834894615e+02 1.8052790341613466e+01 2.4465392790546051e+01 1 0 0
3814 353 8 0.0000000000000000e+00 -2.9299008895231947e+02 4.5230463827420294e+01 3.0780760317420807e+01 0 0 0
3819 353 8 0.0000000000000000e+00 -2.8537548998833824e+02 1.6740776272075369e+01 3.2773800984535058e+01 0 0 0
4065 366 7 0.0000000000000000e+00 -2.7043717183811634e+02 1.4093725078031628e+01 2.8143949352467065e+01 0 0 0
751 76 1 0.0000000000000000e+00 -2.9162760774751587e+02 1.8876788623361726e+01 6.8810700000000002e+00 0 0 0
2551 256 4 0.0000000000000000e+00 -2.5831556711158890e+02 1.5405946194595007e+01 2.4429326253402479e+01 0 0 0
3818 353 7 0.0000000000000000e+00 -2.8957251381688610e+02 1.4316510633408145e+01 4.1687984362298209e+01 0 0 0
2557 256 5 0.0000000000000000e+00 -2.9699366630291263e+02 2.9027334030434584e+01 3.0429684687421265e+01 0 0 0
597 60 3 0.0000000000000000e+00 -2.4225866396949323e+02 2.0088133364977281e+01 3.2508606247527091e+01 1 0 0
596 60 2 0.0000000000000000e+00 -2.3287099712146778e+02 2.2759560640955318e+01 2.9713335975030411e+01 1 0 0
1580 158 5 0.0000000000000000e+00 -2.8137963370703989e+02 4.8431619867728948e+01 1.8357594125416078e+01 0 0 0
595 60 2 0.0000000000000000e+00 -2.3709384906489819e+02 2.4256296632820849e+01 2.1128470062241842e+01 1 0 0
1578 158 6 0.0000000000000000e+00 -2.7435310185566249e+02 4.0628089888607533e+01 3.2516035110397674e+01 0 0 0
3023 303 6 0.0000000000000000e+00 -2.6380946927429443e+02 4.0531332590304764e+01 2.6452134478631002e+01 0 0 0
1251 126 4 0.0000000000000000e+00 -2.4670468563641847e+02 1.0114150520989996e+01 3.2001780625560905e+01 0 0 0
54 6 3 0.0000000000000000e+00 -2.7413330308963702e+02 4.4560850502630110e+01 8.1822271114549299e+00 0 0 0
594 60 3 0.0000000000000000e+00 -2.4150646083985279e+02 2.4229756666008491e+01 1.2136361657621730e+01 1 0 0
53 6 2 0.0000000000000000e+00 -2.7179021570180004e+02 3.4415016069166875e+01 8.6864172233703218e+00 0 0 0
593 60 2 0.0000000000000000e+00 -2.4529806783434708e+02 1.8446778556416291e+01 5.2038728041904250e+00 1 0 0
4063 366 8 0.0000000000000000e+00 -2.5880002466072943e+02 2.2492242369853425e+01 1.6676727395495174e+01 0 0 0
4062 366 7 0.0000000000000000e+00 -2.5169974296584107e+02 3.0214449751309598e+01 1.4070159885001729e+01 0 0 0
4061 366 8 0.0000000000000000e+00 -2.5445016488479186e+02 3.9580279822368389e+01 1.7717445077112139e+01 0 0 0
52 6 2 0.0000000000000000e+00 -2.6748061793733905e+02 2.5863120137636010e+01 9.6987343524685912e+00 0 0 0
2552 256 6 0.0000000000000000e+00 -2.6429575850389659e+02 2.3189134208534025e+01 2.4947785152286375e+01 0 0 0
51 6 1 0.0000000000000000e+00 -2.5841312821899163e+02 2.3387234692357545e+01 5.0072700000000001e+00 0 0 0
2082 209 6 0.0000000000000000e+00 -2.3742577346458702e+02 3.5950461904611466e+01 2.5869607045412657e+01 0 0 0
2083 209 6 0.0000000000000000e+00 -2.4640729189041713e+02 3.0995446938679667e+01 2.7104029552954977e+01 0 0 0
3091 310 4 0.0000000000000000e+00 -2.3239301208555349e+02 1.8051053404950704e+01 1.4004042685249996e+01 0 0 0
2081 209 4 0.0000000000000000e+00 -2.3771827209146284e+02 4.3718691544668339e+01 3.2656465581571140e+01 0 0 0
2554 256 5 0.0000000000000000e+00 -2.8059933367985064e+02 2.3639074489054913e+01 1.8420499473346194e+01 0 0 0
2084 209 5 0.0000000000000000e+00 -2.5452657983214169e+02 2.7227046391682865e+01 2.4149672645565882e+01 0 0 0
3024 303 5 0.0000000000000000e+00 -2.6295538293753026e+02 3.9237888375904724e+01 3.5864120525985683e+01 0 0 0
2556 256 6 0.0000000000000000e+00 -2.9121082752474081e+02 2.2997235976903944e+01 2.5596547464129944e+01 0 0 0
2555 256 6 0.0000000000000000e+00 -2.9054497791514484e+02 2.3582744193587992e+01 1.6049175796997403e+01 0 0 0
2553 256 6 0.0000000000000000e+00 -2.7157536597872399e+02 2.7315995566602268e+01 2.0620634850305553e+01 0 0 0
2085 209 6 0.0000000000000000e+00 -2.5453512847484487e+02 2.6790309108213254e+01 3.4090339198204575e+01 0 0 0
1579 158 6 0.0000000000000000e+00 -2.8153846790131115e+02 4.2822295519170993e+01 2.6078637734700990e+01 0 0 0
2820 282 5 0.0000000000000000e+00 -2.7638100058082881e+02 2.1260079072340318e+01 3.5984319626237927e+01 0 0 0
4060 366 8 0.0000000000000000e+00 -2.5111387321896470e+02 4.7546889650991723e+01 2.3652357058679449e+01 0 0 0
2819 282 6 0.0000000000000000e+00 -2.7787403008559090e+02 3.0923527621279867e+01 3.9456545307325072e+01 0 0 0
2817 282 5 0.0000000000000000e+00 -2.7694826224431466e+02 4.6710965339832477e+01 4.1326364213893918e+01 0 0 0
4777 403 9 0.0000000000000000e+00 -2.3282619508854359e+02 1.5229942222298936e+01 3.7793305931394102e+01 0 0 0
3815 353 7 0.0000000000000000e+00 -2.8972299825082717e+02 3.6673504430988373e+01 3.4614699843676767e+01 0 0 0
4066 366 8 0.0000000000000000e+00 -2.6585922146593850e+02 1.6247489100775805e+01 3.6127395584233767e+01 0 0 0
314 32 3 0.0000000000000000e+00 -2.3164256537696755e+02 4.4470859650951596e+01 2.2961419860019056e+01 0 0 0
121 13 1 0.0000000000000000e+00 -2.6602950830613349e+02 4.7776047663249372e+01 7.2907799999999998e+00 0 0 0
4067 366 8 0.0000000000000000e+00 -2.6517634588603602e+02 2.6160820828152435e+01 3.7455381848311795e+01 0 0 0
4074 366 9 0.0000000000000000e+00 -2.2929232891711848e+02 3.6682809211502885e+01 3.9510476786354012e+01 0 0 0
2472 248 6 0.0000000000000000e+00 -2.7488825404749787e+02 1.0995843721152090e+01 4.0471794962859271e+01 0 0 0
3817 353 8 0.0000000000000000e+00 -2.8954927532370681e+02 2.4217169738442109e+01 4.2439780004089720e+01 0 0 0
5628 490 10 0.0000000000000000e+00 -2.3110065121406765e+02 4.7962461135797426e+01 3.8377530343191211e+01 0 0 0
3816 353 8 0.0000000000000000e+00 -2.9618592107280460e+02 3.1191797915415950e+01 4.0223490959073850e+01 0 0 0
2086 209 6 0.0000000000000000e+00 -2.5546974262068738e+02 2.1328710300102518e+01 4.2640180710064435e+01 0 0 0
3026 303 6 0.0000000000000000e+00 -2.4757496342038928e+02 4.7787071967544634e+01 3.7257620946825632e+01 0 0 0
4341 381 7 0.0000000000000000e+00 -2.4799555619313972e+02 -8.5235422742505278e+01 4.3738887910535901e+01 0 0 0
825 83 6 0.0000000000000000e+00 -2.2843300686702077e+02 -7.4764058470237060e+01 4.4891887594054808e+01 0 0 0
4343 381 8 0.0000000000000000e+00 -2.3577278280391226e+02 -9.3794896836615195e+01 4.3291932472536075e+01 0 0 0
4342 381 8 0.0000000000000000e+00 -2.4507429096769977e+02 -9.3335938130145919e+01 4.7674728919019479e+01 0 0 0
826 83 6 0.0000000000000000e+00 -2.3697324842446181e+02 -7.9750539399456613e+01 4.7977147256791390e+01 0 0 0
996 100 6 0.0000000000000000e+00 -2.7058967789387253e+02 -6.8625411468815457e+01 4.5789123709646624e+01 0 0 0
828 83 6 0.0000000000000000e+00 -2.5342101728747323e+02 -7.6656978118329960e+01 5.2640137576205596e+01 0 0 0
829 83 6 0.0000000000000000e+00 -2.6341508924844862e+02 -7.5011352586232078e+01 5.0692286136954849e+01 0 0 0
997 100 5 0.0000000000000000e+00 -2.7705030540630452e+02 -7.5470283881186788e+01 4.7621381084452395e+01 0 0 0
830 83 5 0.0000000000000000e+00 -2.6177785282086791e+02 -8.0071121016420534e+01 5.9474042359313167e+01 0 0 0
827 83 5 0.0000000000000000e+00 -2.4536089293343775e+02 -8.1801336001241623e+01 5.2718281705844781e+01 0 0 0
999 100 6 0.0000000000000000e+00 -2.9084247694164583e+02 -7.6131991486678046e+01 6.1006685539231370e+01 0 0 0
998 100 6 0.0000000000000000e+00 -2.8417317524272818e+02 -7.7164072531013119e+01 5.3821739685041067e+01 0 0 0
1015 102 6 0.0000000000000000e+00 -2.6695847304366271e+02 -7.0705226189782167e+01 6.6951372424444131e+01 1 0 0
1012 102 6 0.0000000000000000e+00 -2.5814467046720353e+02 -6.8036464772416579e+01 4.5546025313778962e+01 1 0 0
4338 380 8 0.0000000000000000e+00 -2.8150342700434049e+02 -6.8694565958412682e+01 5.8859250198285771e+01 1 0 0
938 94 6 0.0000000000000000e+00 -2.8072482857291322e+02 -4.9025050839061720e+01 4.3106439613953590e+01 1 0 0
4336 380 8 0.0000000000000000e+00 -2.9738029811331381e+02 -6.5145228290254167e+01 4.8601666272790986e+01 1 0 0
1092 110 6 0.0000000000000000e+00 -2.2700794245335237e+02 -3.3937426824065071e+01 6.0289033051963962e+01 0 0 0
1013 102 6 0.0000000000000000e+00 -2.5415784113226471e+02 -6.6157384425267921e+01 5.4472022489695938e+01 1 0 0
2753 276 6 0.0000000000000000e+00 -2.5793655046277644e+02 -4.9007274572480846e+01 4.7722330622416195e+01 0 0 0
3399 331 8 0.0000000000000000e+00 -2.9533705490242369e+02 -3.3151677689953523e+01 6.0639303315676820e+01 0 0 0
1014 102 5 0.0000000000000000e+00 -2.5834723676388586e+02 -6.6142967729366234e+01 6.3565907141475058e+01 1 0 0
1016 102 6 0.0000000000000000e+00 -2.7024438652990347e+02 -6.2730673688157289e+01 7.1987366844520849e+01 1 0 0
974 98 5 0.0000000000000000e+00 -2.3513636821394692e+02 -5.8747661030697152e+01 4.5359966015850503e+01 0 0 0
3400 331 7 0.0000000000000000e+00 -2.8722431215970130e+02 -3.7839835402839888e+01 5.6917831152000694e+01 0 0 0
935 94 6 0.0000000000000000e+00 -2.6664772826152119e+02 -5.6727732842639597e+01 4.8033682452958445e+01 1 0 0
1095 110 6 0.0000000000000000e+00 -2.3236834008320577e+02 -3.6863216264740878e+01 7.3057777947592896e+01 0 0 0
5333 433 8 0.0000000000000000e+00 -2.4366416639760754e+02 -5.1385131769660205e+01 5.8530973602455269e+01 0 0 0
932 94 6 0.0000000000000000e+00 -2.7319055076965299e+02 -4.4016202412806720e+01 5.0577942508087439e+01 1 0 0
933 94 6 0.0000000000000000e+00 -2.7536707808900758e+02 -4.7002113039788043e+01 5.9299506393256259e+01 1 0 0
5334 433 8 0.0000000000000000e+00 -2.5405499388009426e+02 -5.2282127912850846e+01 5.8384064027547588e+01 0 0 0
975 98 6 0.0000000000000000e+00 -2.3637031916044427e+02 -4.9805000177126701e+01 5.0432069235758298e+01 0 0 0
5336 433 8 0.0000000000000000e+00 -2.6240040991088898e+02 -3.8761631618075313e+01 6.8377506798394393e+01 0 0 0
5335 433 7 0.0000000000000000e+00 -2.6014145079202490e+02 -4.7616451208534613e+01 6.4481042640711891e+01 0 0 0
5337 433 8 0.0000000000000000e+00 -2.6201840947841021e+02 -2.9511686722552138e+01 7.2090593091298473e+01 0 0 0
1094 110 5 0.0000000000000000e+00 -2.3899555095102897e+02 -3.4789058728491867e+01 6.6003404092956728e+01 0 0 0
976 98 6 0.0000000000000000e+00 -2.4315309534297268e+02 -4.2565593529162598e+01 5.0719607640957484e+01 0 0 0
934 94 5 0.0000000000000000e+00 -2.6651451635269746e+02 -5.1789633739855184e+01 5.7376136726526504e+01 1 0 0
939 94 6 0.0000000000000000e+00 -2.8669845871265710e+02 -4.5652851744263884e+01 5.0475548379613898e+01 1 0 0
1093 110 6 0.0000000000000000e+00 -2.3615962683390265e+02 -3.5277947445818569e+01 5.6348539307214992e+01 0 0 0
979 98 6 0.0000000000000000e+00 -2.5172540828368545e+02 -4.8191743031672907e+01 7.4395595240290703e+01 0 0 0
5332 433 7 0.0000000000000000e+00 -2.3789296406326784e+02 -4.5206594987837128e+01 6.3321914261160096e+01 0 0 0
977 98 5 0.0000000000000000e+00 -2.5137376585169699e+02 -4.1968158489960885e+01 5.6342153663106892e+01 0 0 0
3401 331 8 0.0000000000000000e+00 -2.7899573518954890e+02 -3.5642721686103172e+01 5.2082927268507369e+01 0 0 0
978 98 6 0.0000000000000000e+00 -2.5020989630775975e+02 -4.5297526499068034e+01 6.5409472623355583e+01 0 0 0
5578 473 11 0.0000000000000000e+00 -2.7822089148750251e+02 -4.8710563407908772e+01 7.9271059617398407e+01 0 0 0
2754 276 5 0.0000000000000000e+00 -2.5935925608507131e+02 -3.9600898733305989e+01 4.9224563423502808e+01 0 0 0
1017 102 5 0.0000000000000000e+00 -2.7079734921190965e+02 -5.9059792835927695e+01 8.0541979719131930e+01 1 0 0
2755 276 6 0.0000000000000000e+00 -2.6510571644587299e+02 -3.7542998838522891e+01 5.7818959016779374e+01 0 0 0
980 98 5 0.0000000000000000e+00 -2.5390233099471695e+02 -3.9386795196004364e+01 7.9971911167120737e+01 0 0 0
5579 473 10 0.0000000000000000e+00 -2.8067952697539761e+02 -4.6878257639000367e+01 6.9688267228434540e+01 0 0 0
4340 380 9 0.0000000000000000e+00 -2.8003719877045296e+02 -5.7869441384041608e+01 7.1422821111053054e+01 1 0 0
940 94 5 0.0000000000000000e+00 -2.8965051801403717e+02 -4.8714207979742895e+01 5.9133919196916914e+01 1 0 0
4339 380 8 0.0000000000000000e+00 -2.8323282853329329e+02 -6.6597137782820596e+01 6.9024277008942690e+01 1 0 0
5331 433 8 0.0000000000000000e+00 -2.3886065349138352e+02 -4.6993395971959941e+01 7.3161566781052201e+01 0 0 0
2756 276 6 0.0000000000000000e+00 -2.7172056486272686e+02 -3.4723624397542096e+01 6.5179766467801940e+01 0 0 0
3406 331 7 0.0000000000000000e+00 -2.9774909152820538e+02 -3.0858943930485722e+01 4.7639431462763262e+01 0 0 0
5330 433 8 0.0000000000000000e+00 -2.4280832662295302e+02 -4.8058379572977117e+01 8.2664123562686299e+01 0 0 0
5344 433 7 0.0000000000000000e+00 -2.4686172550377904e+02 -3.0298386292189790e+01 8.2859890042323997e+01 0 0 0
4337 380 7 0.0000000000000000e+00 -2.8736811024591765e+02 -6.5403739289355201e+01 5.1107654111376803e+01 1 0 0
5341 433 7 0.0000000000000000e+00 -2.5347244455854545e+02 -3.0967288024017137e+01 5.4686960581896628e+01 0 0 0
5343 433 8 0.0000000000000000e+00 -2.4951217515246995e+02 -3.0403505685551050e+01 7.3588716995248120e+01 0 0 0
1851 186 4 0.0000000000000000e+00 -2.6386989979141748e+02 -2.9069882089525585e+01 4.9459970267769400e+01 1 0 0
5583 475 10 0.0000000000000000e+00 -2.9996245042406701e+02 -3.5966284635366868e+01 7.2430376373307624e+01 0 0 0
5342 433 8 0.0000000000000000e+00 -2.5355596989165014e+02 -2.7119693807292649e+01 6.4860802075205328e+01 0 0 0
3827 353 9 0.0000000000000000e+00 -2.5404798223618596e+02 7.7593668755281326e+00 4.5913495580525627e+01 0 0 0
4611 395 8 0.0000000000000000e+00 -2.8000827383973950e+02 -2.6660378443852512e+01 6.1255026535315011e+01 0 0 0
3407 331 8 0.0000000000000000e+00 -2.9549603982591202e+02 -2.2086144314245139e+01 5.1769318807645917e+01 0 0 0