LAMMPS data file via write_data, version 5 Jun 2019, timestep = 490000000

5660 atoms
11 atom types
5945 bonds
7 bond types
4660 angles
4 angle types

-3.0000000000000000e+02 3.0000000000000000e+02 xlo xhi
-3.0000000000000000e+02 3.0000000000000000e+02 ylo yhi
0.0000000000000000e+00 3.0000000000000000e+02 zlo zhi

Masses

1 1000
2 450
3 450
4 11000
5 7000
6 450
7 450
8 450
9 450
10 450
11 20000

Pair Coeffs # lj/cut

1 0.24 10
2 0.24 10
3 0.24 10
4 0.24 10
5 0.24 10
6 0.24 10
7 0.24 10
8 0.24 10
9 0.24 10
10 0.24 10
11 0.24 30

Angle Coeffs # cosine

1 1
2 1
3 1
4 1

Atoms # full

830 83 5 0.0000000000000000e+00 -2.6039287065323600e+02 -2.2148784736506755e+02 2.0879097825852860e+01 0 0 0
829 83 6 0.0000000000000000e+00 -2.6911326963394077e+02 -2.1877549753826253e+02 2.3424894923490633e+01 0 0 0
827 83 5 0.0000000000000000e+00 -2.7931254997285242e+02 -2.0283167112838484e+02 2.8188167813812747e+01 0 0 0
828 83 6 0.0000000000000000e+00 -2.7684073342020815e+02 -2.1275236124037610e+02 2.6444638744920191e+01 0 0 0
824 83 5 0.0000000000000000e+00 -2.7692470662400945e+02 -1.9713064433279399e+02 1.0569470824669251e+01 0 0 0
825 83 6 0.0000000000000000e+00 -2.7793270264489200e+02 -1.8909420399143715e+02 1.6805920181975697e+01 0 0 0
822 83 6 0.0000000000000000e+00 -2.6063688885294897e+02 -1.8943825353096520e+02 1.8096981224348362e+01 0 0 0
823 83 6 0.0000000000000000e+00 -2.6927116552191654e+02 -1.9447153246366253e+02 1.6413976173878734e+01 0 0 0
826 83 6 0.0000000000000000e+00 -2.8244968835340654e+02 -1.9647423371839699e+02 2.1669672435693176e+01 0 0 0
821 83 4 0.0000000000000000e+00 -2.5246093007350831e+02 -1.8304263805740950e+02 1.9030183197244810e+01 0 0 0
194 20 3 0.0000000000000000e+00 -2.5555700657996667e+02 -1.6237887917403322e+02 1.9766291700320934e+01 0 0 0
192 20 2 0.0000000000000000e+00 -2.6365272755986865e+02 -1.5263325822912051e+02 5.2648282427802586e+00 0 0 0
191 20 1 0.0000000000000000e+00 -2.7181012719613761e+02 -1.5730055268372803e+02 5.0072700000000001e+00 0 0 0
193 20 2 0.0000000000000000e+00 -2.5993673826337016e+02 -1.5963997766321003e+02 1.0736103813320113e+01 0 0 0
195 20 2 0.0000000000000000e+00 -2.5794248712195804e+02 -1.6618877955624652e+02 2.8633130465640527e+01 0 0 0
196 20 2 0.0000000000000000e+00 -2.6071387328739257e+02 -1.6669806630805905e+02 3.8079293220629935e+01 0 0 0
1270 127 5 0.0000000000000000e+00 -2.6335576620010897e+02 -1.0031955451695336e+02 1.0501760147082994e+01 0 0 0
1269 127 6 0.0000000000000000e+00 -2.6910660566249800e+02 -1.0827477936169730e+02 1.3790263251725653e+01 0 0 0
1268 127 6 0.0000000000000000e+00 -2.6448335307528095e+02 -1.1623700612001227e+02 9.4622689062562557e+00 0 0 0
1267 127 5 0.0000000000000000e+00 -2.6340629506687321e+02 -1.2529235405230048e+02 5.4432037722856865e+00 0 0 0
1266 127 6 0.0000000000000000e+00 -2.5565617560011086e+02 -1.3036856189293482e+02 7.1071954858780257e+00 0 0 0
1432 144 6 0.0000000000000000e+00 -2.6200694053785600e+02 -9.9385103277503788e+01 2.6688287134609865e+01 0 0 0
1433 144 6 0.0000000000000000e+00 -2.5359613122300902e+02 -1.0294868421759431e+02 3.0315253145118788e+01 0 0 0
1434 144 5 0.0000000000000000e+00 -2.4521421145747192e+02 -1.0102603418773847e+02 3.4274794317754562e+01 0 0 0
1265 127 6 0.0000000000000000e+00 -2.4652399836489454e+02 -1.2930466548778236e+02 1.1210320805485896e+01 0 0 0
1264 127 5 0.0000000000000000e+00 -2.4194607822999197e+02 -1.2747628989761340e+02 1.9749626981508253e+01 0 0 0
1262 127 6 0.0000000000000000e+00 -2.3233275308705791e+02 -1.3270085435794141e+02 1.2043768525922106e+01 0 0 0
1263 127 6 0.0000000000000000e+00 -2.3249080985417666e+02 -1.3118807660298037e+02 2.1642084754218207e+01 0 0 0
1830 183 5 0.0000000000000000e+00 -2.3829801314636430e+02 -1.1010401668518264e+02 3.0892711688906854e+01 1 0 0
1261 127 4 0.0000000000000000e+00 -2.2517282927333662e+02 -1.2638646906429641e+02 1.2863886451079166e+01 0 0 0
770 77 3 0.0000000000000000e+00 -2.3450670279035310e+02 -1.2168766820054542e+02 1.6583285245684557e+01 0 0 0
769 77 2 0.0000000000000000e+00 -2.4005813274886575e+02 -1.1654091136596291e+02 2.2127153886874463e+01 0 0 0
765 77 2 0.0000000000000000e+00 -2.1077191582950852e+02 -1.0846416487599910e+02 1.7160454000620614e+01 0 0 0
766 77 2 0.0000000000000000e+00 -2.2025500421970972e+02 -1.1106708938193798e+02 1.9601575911108373e+01 0 0 0
1829 183 6 0.0000000000000000e+00 -2.3585875682599664e+02 -1.1693443043848372e+02 3.7163332149217474e+01 1 0 0
768 77 2 0.0000000000000000e+00 -2.3673086229001092e+02 -1.0726695558037756e+02 2.1552467741324332e+01 0 0 0
2063 207 6 0.0000000000000000e+00 -2.1925398691359464e+02 -1.0169300701319825e+02 4.1150730994861370e+01 1 0 0
2062 207 6 0.0000000000000000e+00 -2.2099224732935150e+02 -1.0190867451845195e+02 3.1536256816710853e+01 1 0 0
767 77 3 0.0000000000000000e+00 -2.2674558089336435e+02 -1.0446983769659283e+02 2.2174367921200652e+01 0 0 0
1435 144 6 0.0000000000000000e+00 -2.3622913527324954e+02 -9.9010778644058348e+01 3.2752665754723850e+01 0 0 0
1828 183 6 0.0000000000000000e+00 -2.3382330134638804e+02 -1.0708833258283387e+02 3.9015477510819345e+01 1 0 0
2762 277 6 0.0000000000000000e+00 -2.0118822483223300e+02 -1.2057813412252266e+02 2.4789667461729398e+01 0 0 0
764 77 3 0.0000000000000000e+00 -2.0167723710051496e+02 -1.0450210538060230e+02 1.5377469597107069e+01 0 0 0
2761 277 4 0.0000000000000000e+00 -2.0397423686596639e+02 -1.1521709884369889e+02 1.6578924745548751e+01 0 0 0
2763 277 6 0.0000000000000000e+00 -2.0183296184004166e+02 -1.1102596253924953e+02 2.8405543067698471e+01 0 0 0
761 77 1 0.0000000000000000e+00 -1.9298001062473128e+02 -1.1433850062777977e+02 5.0072700000000001e+00 0 0 0
763 77 2 0.0000000000000000e+00 -1.9617194815338513e+02 -1.1107633305165147e+02 1.9645102954221940e+01 0 0 0
762 77 2 0.0000000000000000e+00 -1.9212016140495865e+02 -1.1897574172524385e+02 1.4652476516710387e+01 0 0 0
2764 277 5 0.0000000000000000e+00 -2.0288186775893729e+02 -1.0166712762277693e+02 2.8398449309649180e+01 0 0 0
5450 439 8 0.0000000000000000e+00 -1.8374875721809821e+02 -9.9546034340290305e+01 1.4841126562565648e+01 0 0 0
1431 144 4 0.0000000000000000e+00 -2.6931023587225269e+02 -9.6227932509533474e+01 3.3383469175234325e+01 0 0 0
971 98 4 0.0000000000000000e+00 -2.6627217112163686e+02 -6.5130723668274214e+01 3.2182522499870387e+01 0 0 0
414 42 3 0.0000000000000000e+00 -2.6967789151592353e+02 -8.8890077154790859e+01 2.4098714750795420e+01 1 0 0
390 39 3 0.0000000000000000e+00 -2.6637975316996932e+02 -7.1246694005736188e+01 2.3115323687620688e+01 0 0 0
389 39 2 0.0000000000000000e+00 -2.5798718681574911e+02 -6.5380901365725123e+01 2.3376370850625438e+01 0 0 0
415 42 2 0.0000000000000000e+00 -2.7031808916938428e+02 -8.6291135946984781e+01 3.4039811014501097e+01 1 0 0
413 42 2 0.0000000000000000e+00 -2.6609859863630595e+02 -8.6985205726082341e+01 1.4861223911990237e+01 1 0 0
412 42 2 0.0000000000000000e+00 -2.6145822021096313e+02 -7.8882057521389441e+01 1.0603622368783538e+01 1 0 0
972 98 6 0.0000000000000000e+00 -2.5824083376327877e+02 -5.9580676364423823e+01 3.4693366419782741e+01 0 0 0
411 42 1 0.0000000000000000e+00 -2.5291406710271286e+02 -7.9772059123740320e+01 5.0286200000000001e+00 1 0 0
388 39 2 0.0000000000000000e+00 -2.4988979864851646e+02 -6.1276782777092492e+01 2.7130373333009143e+01 0 0 0
384 39 3 0.0000000000000000e+00 -2.3071447327218712e+02 -7.6311265686884397e+01 1.8074332780891723e+01 0 0 0
4345 381 8 0.0000000000000000e+00 -2.2168977469504799e+02 -7.8446709818580928e+01 3.0267515936250891e+01 0 0 0
383 39 2 0.0000000000000000e+00 -2.2359212666109772e+02 -8.0008742714393108e+01 1.1757427965691001e+01 0 0 0
2061 207 4 0.0000000000000000e+00 -2.2302969646313079e+02 -9.4554104119100941e+01 2.4503011048448410e+01 1 0 0
385 39 2 0.0000000000000000e+00 -2.3404341996950293e+02 -8.0036625333197478e+01 2.6693044943171785e+01 0 0 0
386 39 2 0.0000000000000000e+00 -2.4361899154994606e+02 -7.8814398792708445e+01 2.3187212556817613e+01 0 0 0
2770 277 5 0.0000000000000000e+00 -2.2343533969931875e+02 -6.7524792434322151e+01 1.1277984449013896e+01 0 0 0
2591 260 4 0.0000000000000000e+00 -2.4259980485342015e+02 -6.7621395034242013e+01 3.5272712103198671e+01 1 0 0
2592 260 6 0.0000000000000000e+00 -2.3396521418886999e+02 -6.3625542628327615e+01 3.4824930983298763e+01 1 0 0
4346 381 8 0.0000000000000000e+00 -2.1938617860197130e+02 -8.7046265916856427e+01 3.4487181654848598e+01 0 0 0
387 39 3 0.0000000000000000e+00 -2.4474222785133111e+02 -6.9366788531173498e+01 2.4356149407988415e+01 0 0 0
977 98 5 0.0000000000000000e+00 -2.1997246485384179e+02 -6.3092481628059346e+01 2.1149578387079814e+01 0 0 0
2769 277 6 0.0000000000000000e+00 -2.1748027148500995e+02 -7.3209236325973038e+01 1.7428209418524222e+01 0 0 0
4344 381 7 0.0000000000000000e+00 -2.2154310455789133e+02 -6.7969284551443224e+01 3.0743733908311942e+01 0 0 0
382 39 2 0.0000000000000000e+00 -2.1385885629215903e+02 -8.2279032080005905e+01 1.0994203788492154e+01 0 0 0
978 98 6 0.0000000000000000e+00 -2.1199718728194929e+02 -6.2035306166094649e+01 1.5161423322653572e+01 0 0 0
1436 144 6 0.0000000000000000e+00 -2.3901073445147748e+02 -8.9668740237908636e+01 3.3375320545936319e+01 0 0 0
4343 381 8 0.0000000000000000e+00 -2.1350991913472103e+02 -7.1014773245032572e+01 3.5507755090427743e+01 0 0 0
381 39 1 0.0000000000000000e+00 -2.1081951477399744e+02 -8.9051332721200708e+01 5.0285799999999998e+00 0 0 0
2765 277 6 0.0000000000000000e+00 -2.0958972834975290e+02 -9.6380473249462128e+01 3.2790501780691024e+01 0 0 0
976 98 6 0.0000000000000000e+00 -2.2984663117152610e+02 -6.3767483785310070e+01 2.4104260113517412e+01 0 0 0
2598 260 6 0.0000000000000000e+00 -2.3069397982096714e+02 -7.2986217611259562e+01 4.1309122288006790e+01 1 0 0
975 98 6 0.0000000000000000e+00 -2.3870528217550734e+02 -6.0497427136935102e+01 2.6233676724530312e+01 0 0 0
4350 381 7 0.0000000000000000e+00 -2.4749737277576557e+02 -9.4777800253070964e+01 4.2335285259439139e+01 0 0 0
1437 144 5 0.0000000000000000e+00 -2.3399015960288446e+02 -8.6134391719120899e+01 4.0409537484119930e+01 0 0 0
4342 381 8 0.0000000000000000e+00 -2.0986640773926769e+02 -8.0195061659824574e+01 3.9465515495711401e+01 0 0 0
4348 381 8 0.0000000000000000e+00 -2.2829259184816146e+02 -9.7790405416290199e+01 4.0717080431407432e+01 0 0 0
2595 260 6 0.0000000000000000e+00 -2.1446087459581051e+02 -6.2256087614224263e+01 4.2560173742608690e+01 1 0 0
5451 439 8 0.0000000000000000e+00 -1.8908837933841812e+02 -9.6651373088541604e+01 2.2361050617654929e+01 0 0 0
2768 277 6 0.0000000000000000e+00 -2.0813726266692146e+02 -7.3675572758062103e+01 2.1612799781795037e+01 0 0 0
2766 277 6 0.0000000000000000e+00 -2.0616093874223222e+02 -8.7192900909186847e+01 3.5469585401457422e+01 0 0 0
2767 277 5 0.0000000000000000e+00 -2.0676366359425091e+02 -7.8609294096585472e+01 3.0882777051305510e+01 0 0 0
5453 439 8 0.0000000000000000e+00 -1.9805677243488151e+02 -8.9808206033559387e+01 2.2907514273290158e+01 0 0 0
5454 439 8 0.0000000000000000e+00 -1.9607586330490284e+02 -8.4849282781697184e+01 1.4574971869699191e+01 0 0 0
5452 439 7 0.0000000000000000e+00 -1.9431245688013797e+02 -9.5395814919110450e+01 3.0538353016449452e+01 0 0 0
980 98 5 0.0000000000000000e+00 -1.9561271348333210e+02 -6.5733445658335000e+01 7.3324298243921993e+00 0 0 0
5456 439 8 0.0000000000000000e+00 -1.8916217265839015e+02 -6.9427123214266587e+01 1.6817295126685725e+01 0 0 0
5455 439 7 0.0000000000000000e+00 -1.9484404042281682e+02 -7.5981859520021928e+01 1.0948964253435040e+01 0 0 0
5458 439 7 0.0000000000000000e+00 -1.9700574357939433e+02 -8.0504642013875724e+01 2.6794407996620357e+01 0 0 0
2588 259 6 0.0000000000000000e+00 -1.8408231477176696e+02 -7.8194571448122090e+01 3.0428641150579192e+01 0 0 0
2587 259 5 0.0000000000000000e+00 -1.9236443567886232e+02 -7.2685328496029427e+01 2.9277461986214085e+01 0 0 0
671 68 1 0.0000000000000000e+00 -1.8248970852088760e+02 -8.8902169604883113e+01 5.1170700000000000e+00 0 0 0
672 68 2 0.0000000000000000e+00 -1.7700827947230681e+02 -8.1509726235487335e+01 9.3528882512893503e+00 0 0 0
673 68 2 0.0000000000000000e+00 -1.7343171338295650e+02 -7.3734400996880680e+01 1.4644089070423128e+01 0 0 0
2589 259 6 0.0000000000000000e+00 -1.7531292910626144e+02 -8.2471951246964352e+01 3.1803381851578710e+01 0 0 0
5449 439 7 0.0000000000000000e+00 -1.7622462570441485e+02 -9.2865228820564511e+01 1.6451271245605433e+01 0 0 0
2586 259 6 0.0000000000000000e+00 -1.8341960891450498e+02 -6.8971634165746167e+01 2.6874088069476226e+01 0 0 0
2585 259 6 0.0000000000000000e+00 -1.7483525430618892e+02 -7.3553944950261922e+01 2.5247456025189710e+01 0 0 0
5457 439 8 0.0000000000000000e+00 -1.9745571613132802e+02 -7.2701330010896356e+01 2.1051514511438935e+01 0 0 0
674 68 3 0.0000000000000000e+00 -1.7530741281426359e+02 -6.5153524530962784e+01 1.8334147768293715e+01 0 0 0
5459 439 8 0.0000000000000000e+00 -1.9779877254612063e+02 -8.2397591080732752e+01 3.6455041059326582e+01 0 0 0
2584 259 5 0.0000000000000000e+00 -1.7384654619200739e+02 -6.4869167707543156e+01 3.0385581847894024e+01 0 0 0
2590 259 5 0.0000000000000000e+00 -1.7803477571883670e+02 -9.1345545442678031e+01 3.5290546950418360e+01 0 0 0
2583 259 6 0.0000000000000000e+00 -1.7089462645358506e+02 -6.4977448441432813e+01 3.9459702740411956e+01 0 0 0
979 98 6 0.0000000000000000e+00 -2.0179257215396703e+02 -6.3392462836534150e+01 1.4513662651426269e+01 0 0 0
5446 439 7 0.0000000000000000e+00 -1.6665946279362507e+02 -9.2085989053217574e+01 3.7959800271734181e+01 0 0 0
5448 439 8 0.0000000000000000e+00 -1.6818904834046268e+02 -8.7881672072671805e+01 1.9690676279377854e+01 0 0 0
5460 439 8 0.0000000000000000e+00 -1.9396540753234066e+02 -7.4296780725353884e+01 4.1371547599372384e+01 0 0 0
5447 439 8 0.0000000000000000e+00 -1.6406734868769504e+02 -9.0095094944757918e+01 2.8816012746265177e+01 0 0 0
799 80 2 0.0000000000000000e+00 -1.6639477122702735e+02 -6.8366365799387864e+01 2.5304485935939052e+01 0 0 0
800 80 3 0.0000000000000000e+00 -1.6400496703159664e+02 -7.8264893904269300e+01 2.7785380351975039e+01 0 0 0
2751 276 4 0.0000000000000000e+00 -2.7956009405449532e+02 -2.7671616969050909e+01 1.6593985544721669e+01 0 0 0
2752 276 6 0.0000000000000000e+00 -2.7323711631115572e+02 -3.4587828198806079e+01 1.9414582397654289e+01 0 0 0
2753 276 6 0.0000000000000000e+00 -2.6624956729265591e+02 -4.1509352005163677e+01 2.2563490910677768e+01 0 0 0
2754 276 5 0.0000000000000000e+00 -2.7280209032367094e+02 -3.8933282046592502e+01 2.9913785697999121e+01 0 0 0
2755 276 6 0.0000000000000000e+00 -2.7950276355926525e+02 -4.0444529557534771e+01 3.7075165799836604e+01 0 0 0
2435 244 6 0.0000000000000000e+00 -2.6615240909991485e+02 -2.7006409242245880e+01 3.4364278584318122e+01 0 0 0
2434 244 5 0.0000000000000000e+00 -2.7466820296236727e+02 -2.6067177917321587e+01 2.8538657620511010e+01 0 0 0
61 7 1 0.0000000000000000e+00 -2.8892648515016577e+02 -2.1953609575317010e+01 5.0072700000000001e+00 1 0 0
3780 351 7 0.0000000000000000e+00 -2.5580463772771284e+02 -2.9937874677373003e+01 3.4277949783118267e+01 0 0 0
66 7 2 0.0000000000000000e+00 -2.9321627689505283e+02 -2.3603802649799604e+01 4.0238109698881523e+01 1 0 0
65 7 2 0.0000000000000000e+00 -2.9224670035563685e+02 -2.6604340114292903e+01 3.0440154055550117e+01 1 0 0
4210 374 8 0.0000000000000000e+00 -2.6290735754222402e+02 -2.6988282591822166e+01 2.3955140430705093e+01 0 0 0
4211 374 7 0.0000000000000000e+00 -2.7069766123257176e+02 -2.4977087700212657e+01 1.7938756970412925e+01 0 0 0
64 7 3 0.0000000000000000e+00 -2.8719491770933610e+02 -2.2811438894406223e+01 2.3066254074689933e+01 1 0 0
3781 351 8 0.0000000000000000e+00 -2.5985602483494057e+02 -3.6799083651729227e+01 4.0403477042338402e+01 0 0 0
4209 374 8 0.0000000000000000e+00 -2.5779017700320833e+02 -1.8786279976579490e+01 2.6141254657430629e+01 0 0 0
2436 244 6 0.0000000000000000e+00 -2.6426317335266140e+02 -2.1417557260498427e+01 4.2642802823410911e+01 0 0 0
3782 351 8 0.0000000000000000e+00 -2.5904830729585626e+02 -4.6948446994760900e+01 4.1590035265805739e+01 0 0 0
2910 291 5 0.0000000000000000e+00 -2.7398640738534806e+02 -1.8864907239223054e+01 3.8224926755628218e+01 0 0 0
2594 260 5 0.0000000000000000e+00 -2.1690792448952644e+02 -5.8324255966350115e+01 3.4160429489314524e+01 1 0 0
3779 351 8 0.0000000000000000e+00 -2.5314131663072706e+02 -2.0813975583563007e+01 3.4858836796507966e+01 0 0 0
2593 260 6 0.0000000000000000e+00 -2.2629521348673833e+02 -5.8556402332562349e+01 3.3353673506232070e+01 1 0 0
973 98 6 0.0000000000000000e+00 -2.5076185982668062e+02 -5.4148903623664303e+01 3.7341452011951212e+01 0 0 0
2440 244 5 0.0000000000000000e+00 -2.5090242754791734e+02 -3.8802748806153254e+01 3.4661975773579499e+01 0 0 0
974 98 5 0.0000000000000000e+00 -2.4190501594165536e+02 -5.3446620680821376e+01 3.2489023913944415e+01 0 0 0
1851 186 4 0.0000000000000000e+00 -2.3606688311963217e+02 -3.8996312145802250e+01 3.0472915440020806e+01 1 0 0
577 58 3 0.0000000000000000e+00 -2.2605974373769115e+02 -4.3846430794462059e+01 2.7416429190044571e+01 0 0 0
578 58 2 0.0000000000000000e+00 -2.2157147506944014e+02 -5.2340968059670566e+01 2.4876394797477481e+01 0 0 0
576 58 2 0.0000000000000000e+00 -2.2634598367150824e+02 -3.3554171628623379e+01 2.7155433004809527e+01 0 0 0
579 58 2 0.0000000000000000e+00 -2.1250062058525904e+02 -5.5039060999411561e+01 2.6107244920615681e+01 0 0 0
575 58 2 0.0000000000000000e+00 -2.1650969579625342e+02 -3.1989225739167146e+01 2.5921348889427435e+01 0 0 0
2411 242 4 0.0000000000000000e+00 -2.1175010607133297e+02 -4.9549009850711755e+01 3.6424079659376517e+01 0 0 0
1852 186 6 0.0000000000000000e+00 -2.2881758785597341e+02 -4.1638138613157942e+01 3.6903484215326607e+01 1 0 0
3414 332 8 0.0000000000000000e+00 -2.2292826907549897e+02 -3.2965868480907950e+01 3.7002742782174138e+01 0 0 0
3413 332 7 0.0000000000000000e+00 -2.1667691778023348e+02 -3.9721365651329307e+01 3.2739030039465653e+01 0 0 0
5134 422 8 0.0000000000000000e+00 -2.1700892008029828e+02 -2.2118285580321121e+01 2.0059033098765511e+01 0 0 0
573 58 2 0.0000000000000000e+00 -2.1008294109908860e+02 -4.0951022547299033e+01 2.1045605543980216e+01 0 0 0
5135 422 7 0.0000000000000000e+00 -2.0977751339210340e+02 -2.3198349537499968e+01 2.7329947979776239e+01 0 0 0
3412 332 8 0.0000000000000000e+00 -2.1777539173811056e+02 -4.1293944886245853e+01 4.1676130940909061e+01 0 0 0
5131 422 8 0.0000000000000000e+00 -2.3178904459426536e+02 -1.9015118753921175e+01 2.5043889407535335e+01 0 0 0
675 68 2 0.0000000000000000e+00 -1.7997797107225031e+02 -5.7923011088240870e+01 2.3010368567793869e+01 0 0 0
32 4 2 0.0000000000000000e+00 -2.0251024735216441e+02 -2.1171176913077453e+01 1.2080574409838519e+01 0 0 0
676 68 2 0.0000000000000000e+00 -1.8782084348223572e+02 -5.7292079086300397e+01 2.7870672693551487e+01 0 0 0
677 68 3 0.0000000000000000e+00 -1.9208001333867276e+02 -5.0554400909750115e+01 3.4478890107695065e+01 0 0 0
574 58 3 0.0000000000000000e+00 -2.0709395050728554e+02 -3.4247016863336839e+01 2.8240355931813649e+01 0 0 0
5137 422 8 0.0000000000000000e+00 -1.9448278514742847e+02 -2.3905276284262520e+01 1.7114940494888110e+01 0 0 0
580 58 3 0.0000000000000000e+00 -2.0311408416709838e+02 -5.2145501551402958e+01 2.9709614483132352e+01 0 0 0
571 58 1 0.0000000000000000e+00 -2.0348422476482909e+02 -3.3253849443035541e+01 5.0072700000000001e+00 0 0 0
572 58 2 0.0000000000000000e+00 -2.0676498716130803e+02 -3.8950426867086932e+01 1.2303509539791998e+01 0 0 0
941 95 4 0.0000000000000000e+00 -2.0522227790512724e+02 -2.6427773009876773e+01 3.5933064871352066e+01 0 0 0
792 80 2 0.0000000000000000e+00 -1.8766504532811277e+02 -2.5051466654846806e+01 9.8445381998919892e+00 0 0 0
793 80 2 0.0000000000000000e+00 -1.9379961140869014e+02 -3.2197500088146775e+01 1.3414826099172206e+01 0 0 0
794 80 3 0.0000000000000000e+00 -1.9386554033240171e+02 -3.7162227975806545e+01 2.1986368824423867e+01 0 0 0
795 80 2 0.0000000000000000e+00 -1.8582323599787532e+02 -4.2939402368090548e+01 2.3183414521268478e+01 0 0 0
1801 181 4 0.0000000000000000e+00 -1.9664547514480898e+02 -3.2366992891412629e+01 3.2032207847441818e+01 0 0 0
841 85 4 0.0000000000000000e+00 -1.6709596998754978e+02 -2.7217955276194036e+01 2.7478620511935134e+01 0 0 0
1802 181 6 0.0000000000000000e+00 -1.9698125470928196e+02 -4.2381202153630376e+01 3.3782443400463166e+01 0 0 0
796 80 2 0.0000000000000000e+00 -1.7722307909592513e+02 -4.8020722820192212e+01 2.3444244891258553e+01 0 0 0
679 68 2 0.0000000000000000e+00 -1.8467273818032606e+02 -3.5817763244918901e+01 3.7607416543368139e+01 0 0 0
680 68 3 0.0000000000000000e+00 -1.7565351679630453e+02 -3.4087153894901519e+01 3.2266448355704476e+01 0 0 0
678 68 2 0.0000000000000000e+00 -1.8799072830488390e+02 -4.4764611102986436e+01 4.1122067135534458e+01 0 0 0
5654 498 10 0.0000000000000000e+00 -1.7498599012993100e+02 -3.0111767710001441e+01 1.5555667673572971e+01 0 0 0
5653 498 11 0.0000000000000000e+00 -1.7114409221382269e+02 -2.6265154696578861e+01 7.2729019088064861e+00 0 0 0
31 4 1 0.0000000000000000e+00 -1.9729249333950878e+02 -2.4268333795778769e+01 4.7217000000000002e+00 0 0 0
5138 422 9 0.0000000000000000e+00 -1.8564677932945156e+02 -2.9464520110161558e+01 1.8615916382667759e+01 0 0 0
2581 259 4 0.0000000000000000e+00 -1.6781567827490144e+02 -5.6694625019765802e+01 3.4934026512661219e+01 0 0 0
5136 422 8 0.0000000000000000e+00 -2.0309598751437605e+02 -2.6260265089389829e+01 2.0734355624043499e+01 0 0 0
797 80 3 0.0000000000000000e+00 -1.6771318401966374e+02 -4.8810458955587279e+01 2.6922284064622723e+01 0 0 0
2412 242 6 0.0000000000000000e+00 -2.0371293097402267e+02 -5.5487869575215782e+01 3.8711291534986131e+01 0 0 0
1803 181 6 0.0000000000000000e+00 -2.0401753119709230e+02 -3.6948150868533872e+01 3.7855085906426837e+01 0 0 0
2531 254 4 0.0000000000000000e+00 -1.7005877093655769e+02 -3.2875315580494110e+01 4.2279604739386457e+01 0 0 0
37 4 3 0.0000000000000000e+00 -1.6601044839702297e+02 -2.4293806509644991e+01 1.6071730934500906e+01 0 0 0
5652 498 10 0.0000000000000000e+00 -1.6455605328661284e+02 -2.0046006586253998e+01 3.6131177657112366e+00 0 0 0
1032 104 6 0.0000000000000000e+00 -1.8058807423385696e+02 -5.3047867570477010e+01 4.2841476868761205e+01 0 0 0
798 80 2 0.0000000000000000e+00 -1.6868203070182619e+02 -5.8621902891466505e+01 2.3780191168742206e+01 0 0 0
2242 225 6 0.0000000000000000e+00 -1.8483507928392007e+02 -1.9073489944110467e+01 3.0530317338742037e+01 0 0 0
197 20 3 0.0000000000000000e+00 -2.5603064359647954e+02 -1.6852769500097247e+02 4.6756819456384214e+01 0 0 0
198 20 2 0.0000000000000000e+00 -2.5500255866534567e+02 -1.6801158801228584e+02 5.6761547834887828e+01 0 0 0
199 20 2 0.0000000000000000e+00 -2.5295025237479072e+02 -1.7225331294443561e+02 6.5470175825330799e+01 0 0 0
200 20 3 0.0000000000000000e+00 -2.4558766117263684e+02 -1.7529640380164878e+02 7.2401097967822579e+01 0 0 0
1711 172 4 0.0000000000000000e+00 -2.3859135830740178e+02 -1.6601507590154705e+02 7.3642806630896558e+01 0 0 0
1712 172 6 0.0000000000000000e+00 -2.3068170686340821e+02 -1.6894549664969898e+02 6.9551255113774374e+01 0 0 0
1715 172 6 0.0000000000000000e+00 -2.1828885708617696e+02 -1.4314800820461690e+02 7.2286800235085735e+01 0 0 0
1714 172 5 0.0000000000000000e+00 -2.2344086565347999e+02 -1.5088332264846434e+02 6.7569540951012698e+01 0 0 0
1713 172 6 0.0000000000000000e+00 -2.3012743350490484e+02 -1.5863458490602500e+02 7.0175733097050241e+01 0 0 0
1717 172 5 0.0000000000000000e+00 -2.2791349933641803e+02 -1.5710532462730043e+02 7.9603654314065750e+01 0 0 0
1716 172 6 0.0000000000000000e+00 -2.2296144829208720e+02 -1.4820224162136060e+02 7.8656703165377493e+01 0 0 0
1718 172 6 0.0000000000000000e+00 -2.3592096446615051e+02 -1.6037614593272241e+02 8.5183253236748939e+01 0 0 0
420 42 3 0.0000000000000000e+00 -2.7493974892149754e+02 -1.0531181652367010e+02 5.0489797605934235e+01 1 0 0
1821 183 4 0.0000000000000000e+00 -2.7109197894306317e+02 -1.1454816040603546e+02 4.5315961981936567e+01 1 0 0
1822 183 6 0.0000000000000000e+00 -2.6252159348222625e+02 -1.1063800495207228e+02 4.8631454462070586e+01 1 0 0
419 42 2 0.0000000000000000e+00 -2.6793139221922087e+02 -9.9137386150517884e+01 5.3137737901441682e+01 1 0 0
1823 183 6 0.0000000000000000e+00 -2.5699528107283220e+02 -1.0539982333215274e+02 5.5108635058814706e+01 1 0 0
4351 381 8 0.0000000000000000e+00 -2.4492389598017684e+02 -1.0410801150449609e+02 4.5386658610771917e+01 0 0 0
4356 381 7 0.0000000000000000e+00 -2.4771452943046708e+02 -1.0710169048191096e+02 6.9287506603741406e+01 0 0 0
4357 381 8 0.0000000000000000e+00 -2.4067630031136102e+02 -1.0016843771286898e+02 6.9393186965867230e+01 0 0 0
1824 183 5 0.0000000000000000e+00 -2.5380052323433185e+02 -1.0001038734221376e+02 6.3062413234415239e+01 1 0 0
4352 381 8 0.0000000000000000e+00 -2.4562207223583800e+02 -1.1364050395460906e+02 4.3212776053369069e+01 0 0 0
4355 381 8 0.0000000000000000e+00 -2.5343890480938640e+02 -1.1475737747941230e+02 6.5817462040306282e+01 0 0 0
4354 381 8 0.0000000000000000e+00 -2.4707750825042197e+02 -1.1625966878328397e+02 5.8213389672011438e+01 0 0 0
4353 381 7 0.0000000000000000e+00 -2.4020181405413476e+02 -1.1218266160646063e+02 5.1683700523302676e+01 0 0 0
1827 183 5 0.0000000000000000e+00 -2.3276944936947288e+02 -1.0533538126261362e+02 4.8262664126023857e+01 1 0 0
2064 207 5 0.0000000000000000e+00 -2.1475436618783849e+02 -9.9192285248745648e+01 5.0026725946032300e+01 1 0 0
2066 207 6 0.0000000000000000e+00 -2.0347201693187952e+02 -1.0096024442565880e+02 6.4775712097434678e+01 1 0 0
2067 207 5 0.0000000000000000e+00 -1.9819545577535209e+02 -1.0517137444249623e+02 5.7502419767848394e+01 1 0 0
2068 207 6 0.0000000000000000e+00 -1.9165885516347976e+02 -1.0623425488710500e+02 6.5053561504563191e+01 1 0 0
2069 207 6 0.0000000000000000e+00 -1.8293714200343442e+02 -1.1083863003898584e+02 6.7113170770350621e+01 1 0 0
2070 207 5 0.0000000000000000e+00 -1.7891215249763630e+02 -1.0804011250396859e+02 5.8651027711329043e+01 1 0 0
416 42 2 0.0000000000000000e+00 -2.6695458088320572e+02 -8.8614601954402900e+01 4.3230037385970803e+01 1 0 0
3789 351 9 0.0000000000000000e+00 -2.9536114278448269e+02 -6.7606265348806176e+01 4.6159663514617179e+01 0 0 0
417 42 3 0.0000000000000000e+00 -2.6321161035057969e+02 -8.5713778678011124e+01 5.2254245622995931e+01 1 0 0
3788 351 8 0.0000000000000000e+00 -2.9350842248119295e+02 -6.3050339199925489e+01 5.5664701590658481e+01 0 0 0
418 42 2 0.0000000000000000e+00 -2.6211727857842266e+02 -9.3245849524482040e+01 5.8814348863594880e+01 1 0 0
2597 260 5 0.0000000000000000e+00 -2.2056484710349585e+02 -7.2365055681518626e+01 4.3027936540968618e+01 1 0 0
1825 183 6 0.0000000000000000e+00 -2.4493412762701564e+02 -9.7719906978503388e+01 5.9164823619795285e+01 1 0 0
1826 183 6 0.0000000000000000e+00 -2.3601697396457371e+02 -9.8370109174382904e+01 5.5248103093826899e+01 1 0 0
4347 381 7 0.0000000000000000e+00 -2.2023993535154406e+02 -9.1890582273253756e+01 4.3175393897206384e+01 0 0 0
2065 207 6 0.0000000000000000e+00 -2.1184156895704356e+02 -9.7298752820576496e+01 5.9891988908427258e+01 1 0 0
4358 381 8 0.0000000000000000e+00 -2.4410398729390229e+02 -9.0465921853368727e+01 6.8496572968288874e+01 0 0 0
4349 381 8 0.0000000000000000e+00 -2.3774692428948813e+02 -9.6477762072263872e+01 4.3876380248661263e+01 0 0 0
5559 467 10 0.0000000000000000e+00 -2.2940451026906572e+02 -8.5816962120522490e+01 5.8160717921699387e+01 0 0 0
4341 381 7 0.0000000000000000e+00 -2.1701422474687089e+02 -8.2394214668644551e+01 4.5207971816401418e+01 0 0 0
4359 381 9 0.0000000000000000e+00 -2.3644035872588836e+02 -8.4424644091604051e+01 6.6557616962031375e+01 0 0 0
1438 144 6 0.0000000000000000e+00 -2.2974221092379491e+02 -8.0918613335734818e+01 4.8017496902879010e+01 0 0 0
5561 467 10 0.0000000000000000e+00 -2.1917934653503679e+02 -8.7291095325067516e+01 5.5488801497954832e+01 0 0 0
3941 359 9 0.0000000000000000e+00 -2.1962535966662281e+02 -8.9642448446250526e+01 6.6441812330359099e+01 0 0 0
5560 467 11 0.0000000000000000e+00 -2.2476230603838670e+02 -9.4863544984804889e+01 5.8299658023730714e+01 0 0 0
3939 359 8 0.0000000000000000e+00 -2.2574088534514820e+02 -8.4753847120032390e+01 7.3678577737684620e+01 0 0 0
3938 359 7 0.0000000000000000e+00 -2.2500332230063609e+02 -7.7393849795938436e+01 6.6243941945242184e+01 0 0 0
1439 144 6 0.0000000000000000e+00 -2.2500918501030679e+02 -7.4629301946934078e+01 5.4165148369639354e+01 0 0 0
1440 144 5 0.0000000000000000e+00 -2.3343811438749952e+02 -7.4384658786308719e+01 6.0290434386502234e+01 0 0 0
3937 359 8 0.0000000000000000e+00 -2.1575274029594752e+02 -7.4835654285172879e+01 6.5818088220426304e+01 0 0 0
3940 359 8 0.0000000000000000e+00 -2.2218411556271434e+02 -9.4045779059149297e+01 7.4537852508070046e+01 0 0 0
2596 260 6 0.0000000000000000e+00 -2.1362587730769729e+02 -7.0303454927755595e+01 4.8737412635362723e+01 1 0 0
2599 260 6 0.0000000000000000e+00 -2.3441286366597822e+02 -6.7497526994079834e+01 4.8266400604145382e+01 1 0 0
994 100 5 0.0000000000000000e+00 -2.1511756077251869e+02 -6.5512147073165636e+01 6.2766566031242021e+01 0 0 0
993 100 6 0.0000000000000000e+00 -2.2417013680693921e+02 -6.3786981666344531e+01 6.5363459384732593e+01 0 0 0
991 100 4 0.0000000000000000e+00 -2.2896387967066005e+02 -6.7977262511328618e+01 7.3593455992316208e+01 0 0 0
992 100 6 0.0000000000000000e+00 -2.3470196057148883e+02 -6.2882038984846581e+01 6.5893730825435554e+01 0 0 0
2600 260 5 0.0000000000000000e+00 -2.2813321269948594e+02 -6.1343470764749611e+01 5.3560810429136026e+01 1 0 0
5461 439 9 0.0000000000000000e+00 -1.8466625218642011e+02 -7.2441450340335948e+01 4.3213361797766055e+01 0 0 0
1034 104 5 0.0000000000000000e+00 -1.6491920035490267e+02 -5.9006444222928188e+01 5.0031054250726953e+01 0 0 0
5443 439 7 0.0000000000000000e+00 -1.8217210602712626e+02 -9.6281827818853898e+01 6.2760716064123706e+01 0 0 0
3936 359 8 0.0000000000000000e+00 -2.0750691484875182e+02 -8.0226687678259168e+01 6.2756426542186432e+01 0 0 0