LAMMPS data file via write_data, version 5 Jun 2019, timestep = 410000000

5660 atoms
11 atom types
5940 bonds
7 bond types
4660 angles
4 angle types

-3.0000000000000000e+02 3.0000000000000000e+02 xlo xhi
-3.0000000000000000e+02 3.0000000000000000e+02 ylo yhi
0.0000000000000000e+00 3.0000000000000000e+02 zlo zhi

Masses

1 1000
2 450
3 450
4 11000
5 7000
6 450
7 450
8 450
9 450
10 450
11 20000

Pair Coeffs # lj/cut

1 0.24 10
2 0.24 10
3 0.24 10
4 0.24 10
5 0.24 10
6 0.24 10
7 0.24 10
8 0.24 10
9 0.24 10
10 0.24 10
11 0.24 30

Angle Coeffs # cosine

1 1
2 1
3 1
4 1

Atoms # full

829 83 6 0.0000000000000000e+00 -2.7525711844006014e+02 -9.6753006961779491e+01 3.5119113973574954e+01 0 0 0
830 83 5 0.0000000000000000e+00 -2.6934011829842808e+02 -1.0279470946387644e+02 3.0228340197268444e+01 0 0 0
4518 390 7 0.0000000000000000e+00 -2.8937842110454091e+02 -1.0393006045346259e+02 2.7526926842761387e+01 1 0 0
4517 390 8 0.0000000000000000e+00 -2.9368248390426766e+02 -1.1014277607981120e+02 2.1333457507892586e+01 1 0 0
5583 475 10 0.0000000000000000e+00 -2.7538530177942545e+02 -9.7971936722326362e+01 1.9278638122061050e+01 0 0 0
4519 390 8 0.0000000000000000e+00 -2.8563501600848792e+02 -9.7516726973775064e+01 3.4608310853094991e+01 1 0 0
4530 390 9 0.0000000000000000e+00 -2.7137005940169604e+02 -8.7965466057447358e+01 1.5299435864942440e+01 1 0 0
5584 475 11 0.0000000000000000e+00 -2.7982163749863582e+02 -8.9573945353635040e+01 2.2225686220283162e+01 0 0 0
827 83 5 0.0000000000000000e+00 -2.6962763448824819e+02 -8.9259431883653846e+01 2.9547591978249550e+01 0 0 0
826 83 6 0.0000000000000000e+00 -2.6135899373624528e+02 -9.3613835429601664e+01 2.7051756035333145e+01 0 0 0
576 58 2 0.0000000000000000e+00 -2.6404777866279414e+02 -1.0936358826619740e+02 2.2366388342334833e+01 0 0 0
575 58 2 0.0000000000000000e+00 -2.6146665864990115e+02 -1.0187609854877792e+02 1.7317642169622417e+01 0 0 0
4520 390 8 0.0000000000000000e+00 -2.8509363707324701e+02 -8.8006271980997155e+01 3.2599304546142683e+01 1 0 0
573 58 2 0.0000000000000000e+00 -2.5843286550385068e+02 -9.0071654800412020e+01 8.3886194572648183e+00 0 0 0
825 83 6 0.0000000000000000e+00 -2.5361884381122266e+02 -9.1429686528169185e+01 3.3030292624635045e+01 0 0 0
574 58 3 0.0000000000000000e+00 -2.5460763089434732e+02 -9.4227541993161410e+01 1.6758925063051464e+01 0 0 0
1013 102 6 0.0000000000000000e+00 -2.4902241600741812e+02 -1.0594369494113691e+02 3.1730786701385245e+01 1 0 0
1012 102 6 0.0000000000000000e+00 -2.5407326070754272e+02 -1.1409905315819543e+02 3.4410128011063726e+01 1 0 0
580 58 3 0.0000000000000000e+00 -2.3245277981680837e+02 -1.1099034389963377e+02 1.9688147831527935e+01 0 0 0
821 83 4 0.0000000000000000e+00 -2.3421902550899748e+02 -1.0923064940265570e+02 3.0676318525807240e+01 0 0 0
579 58 2 0.0000000000000000e+00 -2.4101664717455205e+02 -1.1244786627480453e+02 2.3949998680373383e+01 0 0 0
1011 102 4 0.0000000000000000e+00 -2.5431240268704443e+02 -1.2342334148962277e+02 3.1080638758887989e+01 1 0 0
577 58 3 0.0000000000000000e+00 -2.5965323811637313e+02 -1.1836569845248334e+02 2.3183247744282621e+01 0 0 0
578 58 2 0.0000000000000000e+00 -2.5137587213861605e+02 -1.1286552965044726e+02 2.2708149549479987e+01 0 0 0
822 83 6 0.0000000000000000e+00 -2.3769402190036550e+02 -1.0526294852487597e+02 3.9285843878868207e+01 0 0 0
1014 102 5 0.0000000000000000e+00 -2.4542813284831590e+02 -9.6969592684923867e+01 3.0340819626953774e+01 1 0 0
824 83 5 0.0000000000000000e+00 -2.5586537586278200e+02 -9.7419963850513057e+01 4.0838547661797890e+01 0 0 0
798 80 2 0.0000000000000000e+00 -2.2634351760529020e+02 -8.9376780839667234e+01 3.1507523594940494e+01 0 0 0
797 80 3 0.0000000000000000e+00 -2.3152803335466439e+02 -8.8325887962676177e+01 2.2662218968991080e+01 0 0 0
823 83 6 0.0000000000000000e+00 -2.4731874635870238e+02 -1.0197253136004343e+02 4.1510540807912641e+01 0 0 0
3399 331 8 0.0000000000000000e+00 -2.2801601390879708e+02 -8.8128319568019080e+01 4.2604522270810463e+01 0 0 0
828 83 6 0.0000000000000000e+00 -2.7560037100546322e+02 -8.6955383518269059e+01 3.7808578311890891e+01 0 0 0
4529 390 8 0.0000000000000000e+00 -2.6139908037075054e+02 -8.7005029831911017e+01 1.7933376090542549e+01 1 0 0
5585 475 10 0.0000000000000000e+00 -2.8288988921838882e+02 -8.1872528222724753e+01 1.6705723077180689e+01 0 0 0
3887 357 8 0.0000000000000000e+00 -2.7335086307963149e+02 -7.8701154059270451e+01 2.1937063923983686e+01 1 0 0
3903 357 9 0.0000000000000000e+00 -2.8739436047083353e+02 -7.3784295803890814e+01 9.7121110324511886e+00 1 0 0
571 58 1 0.0000000000000000e+00 -2.6970565252083532e+02 -7.4349401051669318e+01 5.0072700000000001e+00 0 0 0
2597 260 5 0.0000000000000000e+00 -2.9245240952354953e+02 -5.9078860413410496e+01 2.9742561639624029e+01 1 0 0
3891 357 7 0.0000000000000000e+00 -2.7556537207847390e+02 -6.3622006792112074e+01 3.6132937364333259e+01 1 0 0
2598 260 6 0.0000000000000000e+00 -2.9252061263923474e+02 -5.1776067328071150e+01 3.6490986169529052e+01 1 0 0
3892 357 8 0.0000000000000000e+00 -2.8464972587200543e+02 -6.3794614729796187e+01 3.4043468538452103e+01 1 0 0
2596 260 6 0.0000000000000000e+00 -2.8372836256983186e+02 -6.0268151910342084e+01 2.4985858596156344e+01 1 0 0
3902 357 8 0.0000000000000000e+00 -2.8760338657715170e+02 -6.5529978450542842e+01 1.4707042234480863e+01 1 0 0
3901 357 8 0.0000000000000000e+00 -2.9255886114508871e+02 -5.7431622681163354e+01 1.7135186462179195e+01 1 0 0
3893 357 8 0.0000000000000000e+00 -2.8712565959300707e+02 -7.3251610928588960e+01 3.1535853803929879e+01 1 0 0
2595 260 6 0.0000000000000000e+00 -2.7826447502677587e+02 -6.6119652580661949e+01 1.8589336344555161e+01 1 0 0
2594 260 5 0.0000000000000000e+00 -2.7126820066700765e+02 -6.2752425099766874e+01 1.2179405503742306e+01 1 0 0
3894 357 7 0.0000000000000000e+00 -2.9482930773678737e+02 -7.0052143589076834e+01 2.6057995308789433e+01 1 0 0
572 58 2 0.0000000000000000e+00 -2.6403705840931053e+02 -8.2097395468003342e+01 6.3559994530328323e+00 0 0 0
3890 357 8 0.0000000000000000e+00 -2.7298100359434932e+02 -6.3811319860682083e+01 2.6877380629849050e+01 1 0 0
3886 357 8 0.0000000000000000e+00 -2.7314133075527747e+02 -7.9092428049386186e+01 3.2276483462166283e+01 1 0 0
4350 381 7 0.0000000000000000e+00 -2.7901468271124128e+02 -5.4519309976941805e+01 1.5124181703952686e+01 0 0 0
4351 381 8 0.0000000000000000e+00 -2.7627030912661661e+02 -5.4021004515617605e+01 2.4648887827576754e+01 0 0 0
2593 260 6 0.0000000000000000e+00 -2.6194198027736439e+02 -6.5344028493496381e+01 8.7334101918887797e+00 1 0 0
4354 381 8 0.0000000000000000e+00 -2.6378660857682235e+02 -4.7881701242417130e+01 3.7423866682603617e+01 0 0 0
3888 357 7 0.0000000000000000e+00 -2.6675728034649228e+02 -7.3470262799418592e+01 1.5947353376513833e+01 1 0 0
3404 331 8 0.0000000000000000e+00 -2.6377565199204980e+02 -6.6096221205724504e+01 3.5129389607705299e+01 0 0 0
3885 357 7 0.0000000000000000e+00 -2.7725313913901476e+02 -7.3027111976388042e+01 3.8616661777797162e+01 1 0 0
4526 390 8 0.0000000000000000e+00 -2.6567907257611108e+02 -7.8313560081582651e+01 4.1975577242059167e+01 1 0 0
3889 357 8 0.0000000000000000e+00 -2.6462178223978293e+02 -6.5357149674659212e+01 2.1417652785338358e+01 1 0 0
4353 381 7 0.0000000000000000e+00 -2.7045952346701898e+02 -5.4637148372844564e+01 3.7640447562044642e+01 0 0 0
4527 390 7 0.0000000000000000e+00 -2.6309389764568806e+02 -7.9740678171452657e+01 3.2051083765295658e+01 1 0 0
4349 381 8 0.0000000000000000e+00 -2.8231329758385613e+02 -4.7166356334385597e+01 9.7976720816974527e+00 0 0 0
4352 381 8 0.0000000000000000e+00 -2.7709868196942040e+02 -4.9782169106913670e+01 3.3193221281955111e+01 0 0 0
3900 357 7 0.0000000000000000e+00 -2.9805845975775196e+02 -4.9409699860192127e+01 1.5340923286688270e+01 1 0 0
2600 260 5 0.0000000000000000e+00 -2.8803834752066609e+02 -4.7833684042438101e+01 2.0759118724632494e+01 1 0 0
4348 381 8 0.0000000000000000e+00 -2.7660427867604915e+02 -4.5594625967379528e+01 1.7814128303774030e+01 0 0 0
3896 357 8 0.0000000000000000e+00 -2.9860698821693239e+02 -6.4805121570437080e+01 1.6351055877813863e+01 1 0 0
4521 390 7 0.0000000000000000e+00 -2.8638685273966439e+02 -8.1413906487564276e+01 4.0320899468233534e+01 1 0 0
1858 186 6 0.0000000000000000e+00 -2.6189230255525325e+02 -5.7495023812366149e+01 4.2278111155576696e+01 1 0 0
1016 102 6 0.0000000000000000e+00 -2.4158812435659905e+02 -8.6152971221838058e+01 3.9702209157132202e+01 1 0 0
1015 102 6 0.0000000000000000e+00 -2.4378178545337155e+02 -8.6851167576236861e+01 2.9426317589096527e+01 1 0 0
4528 390 8 0.0000000000000000e+00 -2.5670665309259033e+02 -8.0181614823911687e+01 2.3541116844498823e+01 1 0 0
3403 331 7 0.0000000000000000e+00 -2.5626530556460676e+02 -6.9600865513503081e+01 3.0092859514318757e+01 0 0 0
3400 331 7 0.0000000000000000e+00 -2.3290008554188287e+02 -8.2360435681392772e+01 3.6432926406950031e+01 0 0 0
2592 260 6 0.0000000000000000e+00 -2.5712741836384663e+02 -7.0929854037992072e+01 1.5087648395468142e+01 1 0 0
796 80 2 0.0000000000000000e+00 -2.3314659226955317e+02 -7.8447108880172834e+01 2.0726962702141233e+01 0 0 0
792 80 2 0.0000000000000000e+00 -2.2743203881183717e+02 -5.6468576872371720e+01 8.2662589335507803e+00 0 0 0
795 80 2 0.0000000000000000e+00 -2.4114475418385632e+02 -7.1942527047607513e+01 1.7481649010498341e+01 0 0 0
2591 260 4 0.0000000000000000e+00 -2.4918817324811798e+02 -7.6252026177866838e+01 1.1541937402972867e+01 1 0 0
794 80 3 0.0000000000000000e+00 -2.4322276104111526e+02 -6.7509231060226014e+01 8.8842184503998975e+00 0 0 0
793 80 2 0.0000000000000000e+00 -2.3697192754312539e+02 -5.9722811070597650e+01 7.2900802219786440e+00 0 0 0
971 98 4 0.0000000000000000e+00 -2.2415908514999015e+02 -8.5543505091110902e+01 1.3960801246573617e+01 0 0 0
1860 186 5 0.0000000000000000e+00 -2.4936872993834152e+02 -6.1011975394145267e+01 2.7808657613769803e+01 1 0 0
974 98 5 0.0000000000000000e+00 -2.2607702735646643e+02 -7.3875058616423857e+01 3.8169201366300953e+01 0 0 0
1714 172 5 0.0000000000000000e+00 -2.2754658104416703e+02 -4.5862368744656990e+01 2.7665593514687945e+01 0 0 0
1859 186 6 0.0000000000000000e+00 -2.5514445240723430e+02 -5.9362564250417286e+01 3.5592966324262498e+01 1 0 0
3402 331 8 0.0000000000000000e+00 -2.4712991325404627e+02 -7.1668060343916906e+01 3.2811395685294755e+01 0 0 0
1713 172 6 0.0000000000000000e+00 -2.2709563951966337e+02 -5.4367232537641762e+01 2.1832046847059647e+01 0 0 0
973 98 6 0.0000000000000000e+00 -2.2410943928314504e+02 -7.9927348366556103e+01 3.0191364014735584e+01 0 0 0
3401 331 8 0.0000000000000000e+00 -2.4000273531449562e+02 -7.7629592495948373e+01 3.0759083951770496e+01 0 0 0
1712 172 6 0.0000000000000000e+00 -2.2056966540387856e+02 -5.8332551627871410e+01 2.7725489870545008e+01 0 0 0
972 98 6 0.0000000000000000e+00 -2.2168468477251392e+02 -8.6193471320606847e+01 2.3176317375764597e+01 0 0 0
2599 260 6 0.0000000000000000e+00 -2.9044191686943600e+02 -4.4643377059219389e+01 3.0042331691333519e+01 1 0 0
3320 327 8 0.0000000000000000e+00 -2.9670326553428981e+02 -1.3971788436620601e+01 4.1050096044908031e+01 1 0 0
4347 381 7 0.0000000000000000e+00 -2.7561949549469722e+02 -4.2868988874469999e+01 2.6699346597509518e+01 0 0 0
2417 242 5 0.0000000000000000e+00 -2.6741090305776760e+02 -2.1458799161248137e+01 2.7950518314550727e+01 0 0 0
2416 242 6 0.0000000000000000e+00 -2.6336665191724364e+02 -1.3742890665556480e+01 2.3282773255693606e+01 0 0 0
2415 242 6 0.0000000000000000e+00 -2.6817501993508051e+02 -1.4060422695675051e+01 1.4989992441000698e+01 0 0 0
2418 242 6 0.0000000000000000e+00 -2.6967736416651167e+02 -3.0449867570094327e+01 3.1854156286727569e+01 0 0 0
4346 381 8 0.0000000000000000e+00 -2.6649947535285759e+02 -3.9322998305892753e+01 2.3077925211596582e+01 0 0 0
4345 381 8 0.0000000000000000e+00 -2.6798853771079553e+02 -2.9402958583552053e+01 2.1471028604080075e+01 0 0 0
2419 242 6 0.0000000000000000e+00 -2.7853937982975776e+02 -2.8185051864483153e+01 3.4965442017812848e+01 0 0 0
2420 242 5 0.0000000000000000e+00 -2.8547889482696786e+02 -2.4954894454225929e+01 2.8735509407812447e+01 0 0 0
4059 366 7 0.0000000000000000e+00 -2.6622645333231350e+02 -1.6832945218734125e+01 3.7342011510784459e+01 0 0 0
4344 381 7 0.0000000000000000e+00 -2.7675077453862423e+02 -2.4426421378920651e+01 1.9626818966771143e+01 0 0 0
4058 366 8 0.0000000000000000e+00 -2.7512972587998786e+02 -1.3657045258060702e+01 4.0049521963060535e+01 0 0 0
4343 381 8 0.0000000000000000e+00 -2.8135098604565087e+02 -1.5734538832287489e+01 2.0062932094715649e+01 0 0 0
598 60 2 0.0000000000000000e+00 -2.9038219397266528e+02 -2.4859614229798243e+01 3.9287789553825903e+01 1 0 0
4342 381 8 0.0000000000000000e+00 -2.8858734856710936e+02 -9.5615879150181371e+00 1.7580108494889782e+01 0 0 0
2414 242 5 0.0000000000000000e+00 -2.7510126386282735e+02 -6.9488854724195930e+00 1.1876655987298472e+01 0 0 0
599 60 2 0.0000000000000000e+00 -2.8528865872490587e+02 -1.5965328670685778e+01 4.0207895626561672e+01 1 0 0
3021 303 4 0.0000000000000000e+00 -2.9631408865836391e+02 -4.4891669631214848e+00 3.4850139186998867e+01 0 0 0
3022 303 6 0.0000000000000000e+00 -2.8659779034541441e+02 -3.5596462100255120e+00 3.6533771838079815e+01 0 0 0
3318 327 7 0.0000000000000000e+00 -2.9274738406897484e+02 -1.8801561108379552e+01 2.3479108447456550e+01 1 0 0
3319 327 8 0.0000000000000000e+00 -2.9373477894051939e+02 -1.4220357236285309e+01 3.1950520434636250e+01 1 0 0
4060 366 8 0.0000000000000000e+00 -2.6213531697910940e+02 -7.7599745634509629e+00 3.3755361470389943e+01 0 0 0
3317 327 8 0.0000000000000000e+00 -2.9876820477187027e+02 -1.2685578692060089e+01 1.9632789306814878e+01 1 0 0
1715 172 6 0.0000000000000000e+00 -2.2258885960250603e+02 -4.1925421278029681e+01 3.5899531225669811e+01 0 0 0
4355 381 8 0.0000000000000000e+00 -2.5942543969683913e+02 -3.9541819834522684e+01 3.5580486880107436e+01 0 0 0
4356 381 7 0.0000000000000000e+00 -2.5534136085563208e+02 -3.4637067788526622e+01 2.7891884839418850e+01 0 0 0
4357 381 8 0.0000000000000000e+00 -2.5415343331034518e+02 -3.0819668185509169e+01 3.7077600129698837e+01 0 0 0
2769 277 6 0.0000000000000000e+00 -2.3142795811745870e+02 -9.4855451638108672e+00 3.7167793943780040e+01 0 0 0
2768 277 6 0.0000000000000000e+00 -2.3760694182440557e+02 -4.8943399297626646e+00 3.1154701872555734e+01 0 0 0
2770 277 5 0.0000000000000000e+00 -2.2150043301805408e+02 -1.0709272711621921e+01 3.8006205464595141e+01 0 0 0
199 20 2 0.0000000000000000e+00 -2.4680293951492567e+02 -7.5375515669648037e+00 1.9498940488319690e+01 0 0 0
2764 277 5 0.0000000000000000e+00 -2.3670322833004104e+02 -3.5736584786520624e+00 1.6778081949368485e+01 0 0 0
2246 225 6 0.0000000000000000e+00 -2.2354204975745844e+02 -2.5804779261964406e+01 3.9256825652441279e+01 0 0 0
200 20 3 0.0000000000000000e+00 -2.4974941604908929e+02 -1.0086529867765551e+01 2.8938008658695324e+01 0 0 0
198 20 2 0.0000000000000000e+00 -2.4703043576797987e+02 -6.0816892723217038e+00 9.2424793490413215e+00 0 0 0
4341 381 7 0.0000000000000000e+00 -2.8900630306047503e+02 2.2887738495322921e-01 2.1371702346884263e+01 0 0 0
4061 366 8 0.0000000000000000e+00 -2.6554693076131059e+02 -1.6810567977947564e+00 2.6890412367555193e+01 0 0 0
4062 366 7 0.0000000000000000e+00 -2.6790552575960527e+02 7.1263063050336788e+00 2.3322660771397000e+01 0 0 0
192 20 2 0.0000000000000000e+00 -2.6682778961907411e+02 2.8231484128406294e+01 1.1607254085951375e+01 0 0 0
2413 242 6 0.0000000000000000e+00 -2.7527121656119010e+02 8.7130545449086461e-01 1.8202307164203233e+01 0 0 0
2760 276 5 0.0000000000000000e+00 -2.7675418422366113e+02 1.7532666107320260e+01 2.0297016134285183e+01 0 0 0
2477 248 5 0.0000000000000000e+00 -2.7741535100929752e+02 3.1060143513715865e+01 1.6619122314636247e+01 0 0 0
2411 242 4 0.0000000000000000e+00 -2.8533134750661418e+02 1.4356229827883611e+01 6.8380074115821499e+00 0 0 0
2412 242 6 0.0000000000000000e+00 -2.8158935208975248e+02 8.1572065039507535e+00 1.4103928328730305e+01 0 0 0
2478 248 6 0.0000000000000000e+00 -2.7195430307314018e+02 2.6208865743736322e+01 2.3478815211961560e+01 0 0 0
3809 353 7 0.0000000000000000e+00 -2.8932869090271811e+02 2.3609259691834517e+01 8.0525581319598096e+00 0 0 0
4063 366 8 0.0000000000000000e+00 -2.7777348436938325e+02 7.5895403542697055e+00 2.7443836046621858e+01 0 0 0
2759 276 6 0.0000000000000000e+00 -2.8372855083073716e+02 2.3369353011627148e+01 1.8074969071571250e+01 0 0 0
2479 248 6 0.0000000000000000e+00 -2.7249960440037069e+02 1.8928844613979191e+01 3.0728002278334138e+01 0 0 0
2480 248 5 0.0000000000000000e+00 -2.7035624117474299e+02 1.0356671282248760e+01 3.3289619061681243e+01 0 0 0
194 20 3 0.0000000000000000e+00 -2.7523440699047768e+02 1.9567791147537690e+01 8.7028857410276093e+00 0 0 0
193 20 2 0.0000000000000000e+00 -2.7547121996488210e+02 2.9144920533200565e+01 6.1593280790733616e+00 0 0 0
2070 207 5 0.0000000000000000e+00 -2.7966992941232377e+02 2.9950097811343539e+01 3.0541288570556873e+01 1 0 0
195 20 2 0.0000000000000000e+00 -2.7026494596710194e+02 1.0848560067093921e+01 1.0187716500023024e+01 0 0 0
2069 207 6 0.0000000000000000e+00 -2.7300064938557369e+02 3.6893482332504185e+01 3.4460914124902239e+01 1 0 0
3810 353 8 0.0000000000000000e+00 -2.9270701810902142e+02 3.0882151666826303e+01 1.4142974715396520e+01 0 0 0
3328 327 8 0.0000000000000000e+00 -2.9171844805249907e+02 2.4639367673587749e+01 3.4254502299359530e+01 1 0 0
2758 276 6 0.0000000000000000e+00 -2.9388946237281363e+02 2.0672166314173914e+01 1.7420511092512061e+01 0 0 0
4064 366 8 0.0000000000000000e+00 -2.8414297692316364e+02 1.3602876771963301e+01 3.1794774990630742e+01 0 0 0
2068 207 6 0.0000000000000000e+00 -2.6525240568284738e+02 3.1978325809606805e+01 3.0540926296279459e+01 1 0 0
196 20 2 0.0000000000000000e+00 -2.6014417004040172e+02 9.9881856774213702e+00 9.7362366325240792e+00 0 0 0
2067 207 5 0.0000000000000000e+00 -2.6187900373911788e+02 3.5241312833834677e+01 3.9623117423242583e+01 1 0 0
3327 327 7 0.0000000000000000e+00 -2.8429462086696918e+02 2.6444060774555787e+01 4.0262977360862223e+01 1 0 0
3931 359 8 0.0000000000000000e+00 -2.9736166093216002e+02 3.2569844077399587e+01 3.4094058710516400e+01 0 0 0
3027 303 5 0.0000000000000000e+00 -2.8991660874437940e+02 3.0063220368016297e+00 4.2708010261344818e+01 0 0 0
3028 303 6 0.0000000000000000e+00 -2.8092854680291606e+02 3.6477340554886202e+00 3.7722968349094984e+01 0 0 0
3811 353 8 0.0000000000000000e+00 -2.8841772507605930e+02 3.1266063780111118e+01 2.3032924787319242e+01 0 0 0
4065 366 7 0.0000000000000000e+00 -2.9220011457240889e+02 1.3259655497627035e+01 3.7263643123327014e+01 0 0 0
3512 337 8 0.0000000000000000e+00 -2.6091368112643818e+02 1.5090704255007847e+01 3.1747751390574727e+01 0 0 0
2476 248 6 0.0000000000000000e+00 -2.8416552486184037e+02 3.8486448962167429e+01 1.4788928232452941e+01 0 0 0
3511 337 7 0.0000000000000000e+00 -2.6004461443315915e+02 2.1799372793519563e+01 3.8495637667894286e+01 0 0 0
3329 327 8 0.0000000000000000e+00 -2.9703810625468958e+02 2.1958311338178717e+01 2.6832303844605566e+01 1 0 0
3029 303 6 0.0000000000000000e+00 -2.7862658968459004e+02 1.1751227994044205e+01 4.1181594688535306e+01 0 0 0
3030 303 5 0.0000000000000000e+00 -2.7463723182354744e+02 2.0426677323638373e+01 4.1798578053585828e+01 0 0 0
3812 353 7 0.0000000000000000e+00 -2.8290261341289579e+02 3.9113212118029601e+01 2.5428451878143502e+01 0 0 0
3513 337 8 0.0000000000000000e+00 -2.5457159944265962e+02 8.2453307105915368e+00 3.0355892764053383e+01 0 0 0
2433 244 6 0.0000000000000000e+00 -2.2180737343789269e+02 7.9622175736609000e+00 4.0313402218563255e+01 0 0 0
1272 128 6 0.0000000000000000e+00 -2.2383499900724237e+02 3.5901125874962219e+01 1.6989026297209922e+01 0 0 0
1758 176 6 0.0000000000000000e+00 -2.2507519263670468e+02 3.3141421535629433e+01 3.6983169707529434e+01 0 0 0
3981 362 8 0.0000000000000000e+00 -2.2178242362502203e+02 1.5771307161213024e+01 2.6877003469863098e+01 0 0 0
761 77 1 0.0000000000000000e+00 -2.2627887581189884e+02 1.0594297620874695e+01 5.0072700000000001e+00 0 0 0
3514 337 7 0.0000000000000000e+00 -2.5200242998100802e+02 4.8279878109886959e-01 3.6492545341250413e+01 0 0 0
3515 337 8 0.0000000000000000e+00 -2.4276202735779287e+02 2.7930468937239805e+00 4.0405430054410253e+01 0 0 0
3516 337 8 0.0000000000000000e+00 -2.3324660441697782e+02 5.9661266483473384e-02 4.0311573428280141e+01 0 0 0
3517 337 7 0.0000000000000000e+00 -2.2585418349789634e+02 2.3699728892419347e-01 3.4393693840023133e+01 0 0 0
191 20 1 0.0000000000000000e+00 -2.5918141553230237e+02 2.8996099432277095e+01 5.0072700000000001e+00 0 0 0
3519 337 8 0.0000000000000000e+00 -2.2256474781051162e+02 3.9294594528562654e+00 2.2941216982333181e+01 0 0 0
3982 362 8 0.0000000000000000e+00 -2.3181332182698449e+02 1.5950840939994928e+01 2.6407555551505041e+01 0 0 0
2820 282 5 0.0000000000000000e+00 -2.2135983145041536e+02 2.2586705533552408e+01 4.2348499270581684e+01 0 0 0
2767 277 5 0.0000000000000000e+00 -2.3527335360613048e+02 4.7623799901389283e+00 3.1328310267912869e+01 0 0 0
2766 277 6 0.0000000000000000e+00 -2.4240658246495389e+02 1.0834807221185203e+01 2.6608011535505867e+01 0 0 0
2765 277 6 0.0000000000000000e+00 -2.4234525227021911e+02 1.3991535642099096e+00 2.2784453134413095e+01 0 0 0
2761 277 4 0.0000000000000000e+00 -2.4801665379162509e+02 1.1631596373569826e+01 1.0202803311492234e+01 0 0 0
197 20 3 0.0000000000000000e+00 -2.5397711113908957e+02 2.1557831494835202e+00 8.4754864282782982e+00 0 0 0
2762 277 6 0.0000000000000000e+00 -2.4263167585665133e+02 8.0182111902927460e+00 2.7023572903716069e+00 0 0 0
1274 128 5 0.0000000000000000e+00 -2.3669598373788361e+02 3.2636391556729990e+01 3.1012367496924643e+01 0 0 0
2763 277 6 0.0000000000000000e+00 -2.3751225317765673e+02 2.8842020777088546e+00 9.0978417329396954e+00 0 0 0
3983 362 7 0.0000000000000000e+00 -2.2872591877046233e+02 2.4086349754124456e+01 3.1391848823631598e+01 0 0 0
3984 362 8 0.0000000000000000e+00 -2.3807757687398123e+02 2.2132897605701455e+01 3.2062061332345635e+01 0 0 0
3520 337 7 0.0000000000000000e+00 -2.2950378933504246e+02 5.2465446828085467e+00 1.6262696854901673e+01 0 0 0
1275 128 6 0.0000000000000000e+00 -2.3754229109535584e+02 3.4574568910287077e+01 4.1170105602335759e+01 0 0 0
3521 337 8 0.0000000000000000e+00 -2.3459870181863556e+02 1.4063710917200224e+01 1.5601667946958939e+01 0 0 0
3985 362 8 0.0000000000000000e+00 -2.4849477291896318e+02 2.3507233364731213e+01 3.4012003657732102e+01 0 0 0
3522 337 8 0.0000000000000000e+00 -2.2807897475751065e+02 1.9182144718033175e+01 1.0942926154843505e+01 0 0 0
3523 337 9 0.0000000000000000e+00 -2.2464819167817825e+02 2.2504943931818897e+01 2.3519123992427247e+00 0 0 0
1273 128 6 0.0000000000000000e+00 -2.2866994731690588e+02 3.0896096889476418e+01 2.3949767819969402e+01 0 0 0
3986 362 7 0.0000000000000000e+00 -2.4608936386825923e+02 1.3999243392651730e+01 3.5465743004995126e+01 0 0 0
762 77 2 0.0000000000000000e+00 -2.2086498847718403e+02 4.4026798790579154e+00 1.0166206372958376e+01 0 0 0
1276 128 6 0.0000000000000000e+00 -2.4497177608615718e+02 2.8225745042039289e+01 4.2407324279079823e+01 0 0 0
2080 208 5 0.0000000000000000e+00 -2.9740863217280270e+02 -2.9359258115708536e+02 6.1005220079852897e+01 0 0 0
2079 208 6 0.0000000000000000e+00 -2.9653614032395745e+02 -2.9889383323840383e+02 6.9637762012274223e+01 0 0 0
2078 208 6 0.0000000000000000e+00 -2.9399562248610130e+02 -2.9979802906267224e+02 7.8714833635165959e+01 0 0 0
4524 390 7 0.0000000000000000e+00 -2.6530225854484331e+02 -9.2053044707568674e+01 4.3833857207909844e+01 1 0 0
950 95 5 0.0000000000000000e+00 -2.6802919613713942e+02 -9.5973590468781751e+01 5.5727771221563025e+01 0 0 0
4523 390 8 0.0000000000000000e+00 -2.7450829333852653e+02 -9.2049060120884675e+01 4.8316258414793985e+01 1 0 0
949 95 6 0.0000000000000000e+00 -2.6717841421869485e+02 -8.8515267167494855e+01 6.1388994733806726e+01 0 0 0
1017 102 5 0.0000000000000000e+00 -2.3790539098414681e+02 -9.2915722792980262e+01 4.6613601417865269e+01 1 0 0
991 100 4 0.0000000000000000e+00 -2.2367286371601270e+02 -9.9521074085689847e+01 4.5263859649724616e+01 0 0 0
1020 102 5 0.0000000000000000e+00 -2.4660664936253514e+02 -9.0119482812479106e+01 6.4527251490982081e+01 1 0 0
3398 331 8 0.0000000000000000e+00 -2.2448263254492824e+02 -8.7717169543577214e+01 5.2009426900552903e+01 0 0 0
3405 331 8 0.0000000000000000e+00 -2.6914424011196968e+02 -6.6979815856838911e+01 4.3093433783671387e+01 0 0 0
942 95 6 0.0000000000000000e+00 -2.9948392404955518e+02 -5.5372791939077949e+01 6.5619956926900173e+01 0 0 0
4522 390 8 0.0000000000000000e+00 -2.8314035228127085e+02 -8.7327042063419796e+01 4.7518579705743925e+01 1 0 0
2838 284 6 0.0000000000000000e+00 -2.9430824990014457e+02 -4.9439093241078659e+01 4.6491098861812659e+01 1 0 0
943 95 6 0.0000000000000000e+00 -2.9204753435447191e+02 -6.1893909862578262e+01 6.8708551889850483e+01 0 0 0
2839 284 6 0.0000000000000000e+00 -2.8858994786246058e+02 -5.6533482344540886e+01 4.9105246612522919e+01 1 0 0
2840 284 5 0.0000000000000000e+00 -2.7978338109225376e+02 -5.7235443441369334e+01 4.4094770653075479e+01 1 0 0
948 95 6 0.0000000000000000e+00 -2.7103601424117608e+02 -8.1958962741334688e+01 5.4630668252653209e+01 0 0 0
1857 186 5 0.0000000000000000e+00 -2.6710441016873204e+02 -5.2955779258101053e+01 4.9105353791374554e+01 1 0 0
945 95 6 0.0000000000000000e+00 -2.9121532869090021e+02 -7.6103329616936080e+01 5.5748099474295373e+01 0 0 0
946 95 6 0.0000000000000000e+00 -2.8756626235480320e+02 -7.3055634649138071e+01 4.6612493601727969e+01 0 0 0
947 95 5 0.0000000000000000e+00 -2.7913471766533291e+02 -7.7598194831114895e+01 4.9417183828097663e+01 0 0 0
1856 186 6 0.0000000000000000e+00 -2.7665806175741432e+02 -5.1203663886137079e+01 5.2891093123414457e+01 1 0 0
1854 186 5 0.0000000000000000e+00 -2.8166443533682258e+02 -5.4085071992425355e+01 6.9711795216240759e+01 1 0 0
1855 186 6 0.0000000000000000e+00 -2.8146661763209198e+02 -5.6174453983563218e+01 6.0501841707077524e+01 1 0 0
1853 186 6 0.0000000000000000e+00 -2.9061728342859863e+02 -5.3461743233816364e+01 7.3652184832680689e+01 1 0 0
3406 331 7 0.0000000000000000e+00 -2.7167309997220508e+02 -6.3637163179484112e+01 5.2311959580181487e+01 0 0 0
944 95 5 0.0000000000000000e+00 -2.9468739400285023e+02 -6.7979998807169096e+01 6.0874921973020896e+01 0 0 0
3407 331 8 0.0000000000000000e+00 -2.6502897734136059e+02 -7.0675626786335528e+01 5.1143239420821899e+01 0 0 0
1852 186 6 0.0000000000000000e+00 -2.9404053272394412e+02 -6.0850265870592985e+01 7.9357068010936970e+01 1 0 0
5626 489 11 0.0000000000000000e+00 -2.6100301721359773e+02 -6.0758826975335552e+01 6.5469795253451281e+01 0 0 0
5625 489 10 0.0000000000000000e+00 -2.6863423504334111e+02 -5.6271215754913506e+01 5.9824784779188413e+01 0 0 0
3276 324 9 0.0000000000000000e+00 -2.2151524546940101e+02 -5.4759526305837070e+01 8.3157136038613487e+01 0 0 0
1018 102 6 0.0000000000000000e+00 -2.3501209627200160e+02 -8.4826194546898805e+01 5.2565690754161615e+01 1 0 0
1830 183 5 0.0000000000000000e+00 -2.5902225415505654e+02 -4.7196194894977218e+01 6.6759188682943829e+01 1 0 0
4525 390 8 0.0000000000000000e+00 -2.5908661202229843e+02 -8.4158608305391212e+01 4.5945224452971900e+01 1 0 0
3408 331 8 0.0000000000000000e+00 -2.5498733167985120e+02 -6.9209673921873161e+01 5.2602442985564856e+01 0 0 0
1019 102 6 0.0000000000000000e+00 -2.3873139624996236e+02 -8.5113829793057405e+01 6.2121854624359820e+01 1 0 0
3396 331 8 0.0000000000000000e+00 -2.2931104646354109e+02 -7.2183662003438570e+01 6.1138713852160990e+01 0 0 0
3409 331 9 0.0000000000000000e+00 -2.4740478757606610e+02 -6.3559140982092657e+01 5.5058897379521632e+01 0 0 0
5627 489 10 0.0000000000000000e+00 -2.5334183937807782e+02 -5.5730499107312916e+01 6.0486940718489983e+01 0 0 0
3393 331 8 0.0000000000000000e+00 -2.3164384834820325e+02 -5.8230461940110786e+01 7.7936792394263776e+01 0 0 0
3395 331 8 0.0000000000000000e+00 -2.2766665838445704e+02 -6.3458498817114375e+01 6.4468321797673795e+01 0 0 0
3394 331 7 0.0000000000000000e+00 -2.2395479049375902e+02 -5.8105572684314083e+01 7.1438871062290559e+01 0 0 0
3397 331 7 0.0000000000000000e+00 -2.2361493126287110e+02 -7.9819420190653560e+01 5.8417531418576054e+01 0 0 0
975 98 6 0.0000000000000000e+00 -2.2773819264925291e+02 -6.8976311676725985e+01 4.6763642950017172e+01 0 0 0
976 98 6 0.0000000000000000e+00 -2.2218504500583956e+02 -6.6357703424862848e+01 5.4598016029302066e+01 0 0 0
3023 303 6 0.0000000000000000e+00 -2.8210464821915917e+02 -7.3526165906193777e+00 4.5331351552622394e+01 0 0 0
3322 327 8 0.0000000000000000e+00 -2.9900669764671596e+02 -3.3124187167581205e+00 5.2277932547246927e+01 1 0 0
1822 183 6 0.0000000000000000e+00 -2.9763837369029426e+02 -3.2622760888613016e+01 5.8434998675369179e+01 1 0 0
1829 183 6 0.0000000000000000e+00 -2.6511348593382968e+02 -4.4804550890320648e+01 5.9879389069560723e+01 1 0 0
1825 183 6 0.0000000000000000e+00 -2.9834004656954835e+02 -4.2441004651947701e+01 5.8664112855038177e+01 1 0 0
3505 337 7 0.0000000000000000e+00 -2.6945633148774635e+02 -1.0404610400453780e+01 4.8387810289930528e+01 0 0 0
3321 327 7 0.0000000000000000e+00 -2.9167437009744850e+02 -6.9170072191641516e+00 4.6702777895466184e+01 1 0 0
597 60 3 0.0000000000000000e+00 -2.9610615382743356e+02 -2.8413108636045369e+01 4.6045469910586213e+01 1 0 0
4057 366 8 0.0000000000000000e+00 -2.7690808418483539e+02 -2.0620017030418584e+01 4.6999270869401926e+01 0 0 0
1828 183 6 0.0000000000000000e+00 -2.7224375118949627e+02 -3.7688219661426459e+01 5.6972703199778685e+01 1 0 0
4056 366 7 0.0000000000000000e+00 -2.8158493118040832e+02 -2.8077223853415873e+01 5.1283164170817756e+01 0 0 0
3681 346 8 0.0000000000000000e+00 -2.9386260574924853e+02 -1.1672197442418595e+01 6.0460964894679385e+01 1 0 0
1826 183 6 0.0000000000000000e+00 -2.8929269656482370e+02 -3.8676431703879288e+01 6.0842788013718852e+01 1 0 0
1824 183 5 0.0000000000000000e+00 -2.9791825004912874e+02 -4.0846442608686388e+01 6.8671269617314636e+01 1 0 0