LAMMPS data file via write_data, version 5 Jun 2019, timestep = 430000000

5660 atoms
11 atom types
5949 bonds
7 bond types
4660 angles
4 angle types

-3.0000000000000000e+02 3.0000000000000000e+02 xlo xhi
-3.0000000000000000e+02 3.0000000000000000e+02 ylo yhi
0.0000000000000000e+00 3.0000000000000000e+02 zlo zhi

Masses

1 1000
2 450
3 450
4 11000
5 7000
6 450
7 450
8 450
9 450
10 450
11 20000

Pair Coeffs # lj/cut

1 0.24 10
2 0.24 10
3 0.24 10
4 0.24 10
5 0.24 10
6 0.24 10
7 0.24 10
8 0.24 10
9 0.24 10
10 0.24 10
11 0.24 30

Angle Coeffs # cosine

1 1
2 1
3 1
4 1

Atoms # full

2071 208 4 0.0000000000000000e+00 -2.6558082265937952e+02 -2.2400459786160107e+02 2.0271368109938344e+01 0 0 0
2072 208 6 0.0000000000000000e+00 -2.6934082919081874e+02 -2.1864204386611306e+02 2.7414723965882846e+01 0 0 0
2073 208 6 0.0000000000000000e+00 -2.7550439464021377e+02 -2.1657141177155324e+02 3.4510831662582270e+01 0 0 0
2077 208 5 0.0000000000000000e+00 -2.8679272289991945e+02 -1.8876119611182455e+02 4.1598593047110938e+01 0 0 0
2074 208 5 0.0000000000000000e+00 -2.7808892552834294e+02 -2.0953859144516758e+02 4.1181851897244009e+01 0 0 0
2078 208 6 0.0000000000000000e+00 -2.8251624022604216e+02 -1.8172237895667632e+02 3.6151113703426958e+01 0 0 0
2075 208 6 0.0000000000000000e+00 -2.8582287021222567e+02 -2.0383703771730640e+02 3.6940727931310569e+01 0 0 0
2079 208 6 0.0000000000000000e+00 -2.7914131207668873e+02 -1.7218491012062299e+02 3.7247485216785456e+01 0 0 0
2080 208 5 0.0000000000000000e+00 -2.8826282926042978e+02 -1.6954233877120649e+02 4.0851708383697542e+01 0 0 0
1011 102 4 0.0000000000000000e+00 -2.6603798562243151e+02 -9.9043049938135596e+01 2.4858576889462402e+01 1 0 0
821 83 4 0.0000000000000000e+00 -2.4431383775289700e+02 -9.9930578569465254e+01 3.3232992875042221e+01 0 0 0
822 83 6 0.0000000000000000e+00 -2.3535530291145724e+02 -1.0012853233974253e+02 2.8710969717369387e+01 0 0 0
754 76 3 0.0000000000000000e+00 -2.9185576194252474e+02 -9.6096163907937409e+01 2.8190485979399650e+01 0 0 0
580 58 3 0.0000000000000000e+00 -2.4776581611203261e+02 -1.0212305098333114e+02 2.2834995100884107e+01 0 0 0
753 76 2 0.0000000000000000e+00 -2.9154166837283304e+02 -1.0228754222421226e+02 2.0129198015148138e+01 0 0 0
579 58 2 0.0000000000000000e+00 -2.5517678172602569e+02 -1.0809705312243766e+02 2.5990582762170536e+01 0 0 0
576 58 2 0.0000000000000000e+00 -2.7336027576567523e+02 -1.0147937377976568e+02 1.6719645639397609e+01 0 0 0
577 58 3 0.0000000000000000e+00 -2.6937258544657823e+02 -1.0933035784335941e+02 2.1174972199964404e+01 0 0 0
578 58 2 0.0000000000000000e+00 -2.6474256155853146e+02 -1.1031474365120502e+02 3.0085198195198149e+01 0 0 0
575 58 2 0.0000000000000000e+00 -2.8268575569262725e+02 -9.8329118771885803e+01 1.6530319525631651e+01 0 0 0
752 76 2 0.0000000000000000e+00 -2.9213861952591066e+02 -1.0995206568931998e+02 1.4048566824599497e+01 0 0 0
755 76 2 0.0000000000000000e+00 -2.9458655105700205e+02 -9.1807082681216983e+01 3.6839777723766659e+01 0 0 0
5345 433 8 0.0000000000000000e+00 -2.3744139684606347e+02 -9.2992868011771407e+01 3.6851298829806204e+01 0 0 0
751 76 1 0.0000000000000000e+00 -2.9971326632224310e+02 -1.1063828261086017e+02 6.8810700000000002e+00 0 0 0
574 58 3 0.0000000000000000e+00 -2.8090526185672201e+02 -8.9753682824764709e+01 1.2417709853806896e+01 0 0 0
5344 433 7 0.0000000000000000e+00 -2.4405150003456879e+02 -8.8577515996731350e+01 3.1363417227655294e+01 0 0 0
1431 144 4 0.0000000000000000e+00 -2.9743843498308621e+02 -8.6792388315069857e+01 2.5473714344871841e+01 0 0 0
1012 102 6 0.0000000000000000e+00 -2.6753643850957354e+02 -8.9324216724935667e+01 2.6750973908034538e+01 1 0 0
5120 422 7 0.0000000000000000e+00 -2.4748228784771823e+02 -7.9751055743680524e+01 9.7247984369449547e+00 0 0 0
5121 422 8 0.0000000000000000e+00 -2.3842660129834337e+02 -8.0209222081068347e+01 7.0043686371427079e+00 0 0 0
827 83 5 0.0000000000000000e+00 -2.3609602394875290e+02 -8.3842618148458030e+01 2.7176267564856488e+01 0 0 0
573 58 2 0.0000000000000000e+00 -2.7898895995595041e+02 -8.0027796365021288e+01 9.6577092109306832e+00 0 0 0
1013 102 6 0.0000000000000000e+00 -2.7461168987666139e+02 -8.5028329899267334e+01 2.1783079203269377e+01 1 0 0
828 83 6 0.0000000000000000e+00 -2.3773732218219433e+02 -7.4677009390580508e+01 2.7871229464276603e+01 0 0 0
1014 102 5 0.0000000000000000e+00 -2.8161439401230160e+02 -7.9654547987035102e+01 2.6736765780335311e+01 1 0 0
572 58 2 0.0000000000000000e+00 -2.8191209234222953e+02 -7.1056063675087813e+01 1.0530174646458056e+01 0 0 0
571 58 1 0.0000000000000000e+00 -2.8927247599446974e+02 -6.6899383294457579e+01 5.0072700000000001e+00 0 0 0
1017 102 5 0.0000000000000000e+00 -2.8065400351699213e+02 -6.5968818627068700e+01 3.1451457609940327e+01 1 0 0
1015 102 6 0.0000000000000000e+00 -2.8227157236298882e+02 -7.8033519548696418e+01 3.6624231580841268e+01 1 0 0
5341 433 7 0.0000000000000000e+00 -2.5242637090456608e+02 -6.8833860929412609e+01 2.3489105591245231e+01 0 0 0
4330 380 8 0.0000000000000000e+00 -2.7269080502011212e+02 -6.5836400755448068e+01 2.3575792128741107e+01 1 0 0
4329 380 8 0.0000000000000000e+00 -2.6503725547763025e+02 -7.2166006370384721e+01 2.4742720142234258e+01 1 0 0
5342 433 8 0.0000000000000000e+00 -2.5252402351645753e+02 -7.8322700173804350e+01 1.9829304717215550e+01 0 0 0
829 83 6 0.0000000000000000e+00 -2.3997975048474103e+02 -6.5485100597158862e+01 2.6379148374121005e+01 0 0 0
4328 380 7 0.0000000000000000e+00 -2.7048044175966612e+02 -7.8770870876510031e+01 2.9759772360518152e+01 1 0 0
4331 380 7 0.0000000000000000e+00 -2.8133357070577682e+02 -6.7682138919371113e+01 2.0067487698841862e+01 1 0 0
5343 433 8 0.0000000000000000e+00 -2.4742969542459622e+02 -8.6104109260176813e+01 2.2035911918259036e+01 0 0 0
1018 102 6 0.0000000000000000e+00 -2.9027457825717937e+02 -6.5089338463993897e+01 3.0339775779839414e+01 1 0 0
1037 104 5 0.0000000000000000e+00 -2.5392815923060709e+02 -7.0700161484548261e+01 1.2237691302474415e+01 0 0 0
4332 380 8 0.0000000000000000e+00 -2.8488827412268148e+02 -5.9697539534850250e+01 1.5099587926853772e+01 1 0 0
5340 433 8 0.0000000000000000e+00 -2.5355641164364056e+02 -6.1490748726958159e+01 3.0918894644337570e+01 0 0 0
1038 104 6 0.0000000000000000e+00 -2.5995980175334194e+02 -6.5842965149364503e+01 1.8333421916471089e+01 0 0 0
5339 433 8 0.0000000000000000e+00 -2.5369266870417718e+02 -5.6105785280851109e+01 3.9332935211568063e+01 0 0 0
1035 104 6 0.0000000000000000e+00 -2.4429459277576868e+02 -5.4198955258486635e+01 1.1249498498331917e+01 0 0 0
1036 104 6 0.0000000000000000e+00 -2.5021473025244393e+02 -6.1572864152582298e+01 1.3269642243623931e+01 0 0 0
756 76 2 0.0000000000000000e+00 -2.9446709096138363e+02 -8.1676525530549384e+01 3.4187844530946045e+01 0 0 0
4334 380 7 0.0000000000000000e+00 -2.9312017922336889e+02 -4.8951251244378085e+01 1.4317796595177883e+01 1 0 0
4333 380 8 0.0000000000000000e+00 -2.9199154194444617e+02 -5.6902922094668760e+01 8.1940866688605034e+00 1 0 0
1039 104 6 0.0000000000000000e+00 -2.6514966943027309e+02 -5.7656914934828002e+01 1.5302798954063190e+01 0 0 0
1016 102 6 0.0000000000000000e+00 -2.7551421675782080e+02 -7.1559529579328000e+01 3.7110358196558039e+01 1 0 0
1040 104 5 0.0000000000000000e+00 -2.6349327171681972e+02 -5.2344208458138652e+01 6.9285899894624610e+00 0 0 0
830 83 5 0.0000000000000000e+00 -2.3632614964666141e+02 -6.7163848975690726e+01 1.7183865328583988e+01 0 0 0
5329 433 7 0.0000000000000000e+00 -2.5793032374861497e+02 -5.2671049778446807e+01 2.0486897809220235e+01 0 0 0
4326 380 8 0.0000000000000000e+00 -2.5475884306886772e+02 -7.8584391934552428e+01 4.0121255899344817e+01 1 0 0
4336 380 8 0.0000000000000000e+00 -2.7563801891399231e+02 -5.2598695324368705e+01 6.1744698051006655e+00 1 0 0
4325 380 7 0.0000000000000000e+00 -2.4559219834722347e+02 -7.7549530064964344e+01 3.6538855008045374e+01 1 0 0
3505 337 7 0.0000000000000000e+00 -2.7395793129843929e+02 -5.6171706088603834e+01 3.9245598716206899e+01 0 0 0
4324 380 8 0.0000000000000000e+00 -2.4332826172423160e+02 -6.8403980675233186e+01 3.9767596122141320e+01 1 0 0
2600 260 5 0.0000000000000000e+00 -2.6564306878721339e+02 -6.2471323941828828e+01 3.5526494420846284e+01 1 0 0
5330 433 8 0.0000000000000000e+00 -2.5622840981747413e+02 -4.8658993592930514e+01 2.9722859244838514e+01 0 0 0
3155 316 6 0.0000000000000000e+00 -2.9455899625110624e+02 -5.7699142715300752e+01 2.5014588743352906e+01 1 0 0
1019 102 6 0.0000000000000000e+00 -2.8761017128736506e+02 -5.7335078179306493e+01 3.6275648318641210e+01 1 0 0
5127 422 8 0.0000000000000000e+00 -2.4027194230792801e+02 -5.2073426564607573e+01 3.6736285758814695e+01 0 0 0
3506 337 8 0.0000000000000000e+00 -2.8044014315923874e+02 -4.9819730540694898e+01 3.4603433531056233e+01 0 0 0
4327 380 8 0.0000000000000000e+00 -2.6136895558817395e+02 -8.1843931075541477e+01 3.3664807705653857e+01 1 0 0
5122 422 8 0.0000000000000000e+00 -2.3871758486340755e+02 -7.6920814790764325e+01 1.6256609236979848e+01 0 0 0
5331 433 8 0.0000000000000000e+00 -2.6377350563284165e+02 -5.1534758776662706e+01 3.5227761983639255e+01 0 0 0
757 76 3 0.0000000000000000e+00 -2.9106008202311062e+02 -7.2926074819510490e+01 3.7863117602963605e+01 0 0 0
5126 422 7 0.0000000000000000e+00 -2.3555683130524551e+02 -6.0588496712089849e+01 4.0127223897379970e+01 0 0 0
1020 102 5 0.0000000000000000e+00 -2.8274079489072011e+02 -6.4360514234512721e+01 4.2261363482547253e+01 1 0 0
826 83 6 0.0000000000000000e+00 -2.3530293231824081e+02 -8.7059700028615097e+01 1.7849946326532379e+01 0 0 0
3156 316 6 0.0000000000000000e+00 -2.9643328397776361e+02 -5.3068605203205919e+01 3.3583356851260469e+01 1 0 0
5130 422 8 0.0000000000000000e+00 -2.3362777165736986e+02 -5.1550177477215982e+01 2.6716698410696729e+01 0 0 0
4335 380 8 0.0000000000000000e+00 -2.8376659028211975e+02 -4.7522160934157718e+01 9.5085643119462109e+00 1 0 0
4337 380 7 0.0000000000000000e+00 -2.7046726363145012e+02 -4.6324531529540060e+01 1.2208086254137459e+01 1 0 0
4338 380 8 0.0000000000000000e+00 -2.7379910129527855e+02 -4.3586035918233939e+01 2.1092627580926401e+01 1 0 0
3154 316 5 0.0000000000000000e+00 -2.9726750305294786e+02 -4.7767853342687445e+01 2.5378193591870833e+01 1 0 0
5129 422 7 0.0000000000000000e+00 -2.4069264927021024e+02 -4.6123873965363678e+01 2.2355594722118518e+01 0 0 0
5128 422 8 0.0000000000000000e+00 -2.4393577195531273e+02 -4.4411113138846900e+01 3.1043414867185334e+01 0 0 0
3508 337 7 0.0000000000000000e+00 -2.9256081129763868e+02 -3.7454994005089510e+01 3.8868984412670308e+01 0 0 0
4340 380 9 0.0000000000000000e+00 -2.6194377028003436e+02 -3.4543251758973142e+01 3.3488466619618585e+01 1 0 0
4339 380 8 0.0000000000000000e+00 -2.6890537170136645e+02 -4.1294352134542464e+01 2.9578033591231449e+01 1 0 0
1034 104 5 0.0000000000000000e+00 -2.4268124427854292e+02 -4.4696356262850763e+01 1.0594238226757041e+01 0 0 0
591 60 1 0.0000000000000000e+00 -2.7688743479990467e+02 -3.7944266312289351e+01 5.1971699999999998e+00 1 0 0
191 20 1 0.0000000000000000e+00 -2.4812442009466932e+02 -2.2853170730638048e+01 5.0072700000000001e+00 0 0 0
192 20 2 0.0000000000000000e+00 -2.4744175537209824e+02 -2.4743992361535859e+01 1.4877343936735540e+01 0 0 0
592 60 2 0.0000000000000000e+00 -2.6921395679918766e+02 -3.1282301593664876e+01 7.8860885267276259e+00 1 0 0
593 60 2 0.0000000000000000e+00 -2.6193867796717234e+02 -2.9036693117424029e+01 1.3748589749836082e+01 1 0 0
2081 209 4 0.0000000000000000e+00 -2.3842716385846066e+02 -2.3486416952835281e+01 2.9643798282169421e+01 0 0 0
2751 276 4 0.0000000000000000e+00 -2.7567383637783314e+02 -2.0492382628611885e+01 2.0037515663067246e+01 0 0 0
594 60 3 0.0000000000000000e+00 -2.6530424637682290e+02 -2.4523547739641092e+01 2.1607896779548039e+01 1 0 0
194 20 3 0.0000000000000000e+00 -2.5270523171221879e+02 -9.1782359764246486e+00 1.3699346996035143e+01 0 0 0
193 20 2 0.0000000000000000e+00 -2.4695436913481760e+02 -1.6082915052825118e+01 1.9481817229425644e+01 0 0 0
2752 276 6 0.0000000000000000e+00 -2.6839580423565064e+02 -1.5692772161948213e+01 2.3807372163285525e+01 0 0 0
1821 183 4 0.0000000000000000e+00 -2.6407702535472600e+02 -8.6179300136825230e+00 1.5807986489672357e+01 1 0 0
595 60 2 0.0000000000000000e+00 -2.6159936902334783e+02 -2.0908266253355411e+01 2.9140457359416111e+01 1 0 0
789 79 2 0.0000000000000000e+00 -2.7684585453651459e+02 -2.1937509529406693e+01 3.2087790310879555e+01 1 0 0
2753 276 6 0.0000000000000000e+00 -2.5980746718652728e+02 -1.0877238971650879e+01 2.4732537079640064e+01 0 0 0
788 79 2 0.0000000000000000e+00 -2.8383504764642169e+02 -1.5361319677239740e+01 3.0031821647021900e+01 1 0 0
787 79 3 0.0000000000000000e+00 -2.8373805599932280e+02 -1.5207049012193501e+01 2.0098071076983338e+01 1 0 0
2083 209 6 0.0000000000000000e+00 -2.4017790995267390e+02 -1.3142287217967004e+01 3.5108933521417597e+01 0 0 0
596 60 2 0.0000000000000000e+00 -2.5598106458794445e+02 -2.6207036997519033e+01 3.5585472605204323e+01 1 0 0
3021 303 4 0.0000000000000000e+00 -2.9317412061146229e+02 -2.1574981859930951e+01 1.9061708182132836e+01 0 0 0
4056 366 7 0.0000000000000000e+00 -2.5466476328891537e+02 -1.4372725134517800e+01 3.5426235376375892e+01 0 0 0
790 79 3 0.0000000000000000e+00 -2.8043677578662982e+02 -3.0886919719425180e+01 3.6019757951920951e+01 1 0 0
3022 303 6 0.0000000000000000e+00 -2.9797219976668589e+02 -1.8218800019666915e+01 2.7748830703030443e+01 0 0 0
3023 303 6 0.0000000000000000e+00 -2.9710684139724475e+02 -1.0838281028993181e+01 3.4894549206424408e+01 0 0 0
597 60 3 0.0000000000000000e+00 -2.6277467652490526e+02 -2.0701059331358561e+01 4.0863725541665758e+01 1 0 0
3507 337 8 0.0000000000000000e+00 -2.8845666849068311e+02 -4.6673610245027824e+01 3.9600540876440299e+01 0 0 0
931 94 4 0.0000000000000000e+00 -2.7303439388924374e+02 -2.4904487014888247e+01 4.2184783736371820e+01 1 0 0
1033 104 6 0.0000000000000000e+00 -2.3502936031637194e+02 -3.9227983850346924e+01 1.4026161511587063e+01 0 0 0
196 20 2 0.0000000000000000e+00 -2.3825301253678637e+02 -9.6011224765092660e+00 2.5386825424688332e+01 0 0 0
4057 366 8 0.0000000000000000e+00 -2.6191942037661033e+02 -7.4355044811539974e+00 3.6682042937600841e+01 0 0 0
786 79 2 0.0000000000000000e+00 -2.8448599851872501e+02 -1.1737513644433673e+01 1.0812300275375774e+01 1 0 0
2754 276 5 0.0000000000000000e+00 -2.5046660485165449e+02 -7.3038381112491999e+00 2.7450319546255351e+01 0 0 0
785 79 2 0.0000000000000000e+00 -2.7740382095463860e+02 -9.7117877793431653e+00 4.8580182066014972e+00 1 0 0
784 79 3 0.0000000000000000e+00 -2.6773772536300464e+02 -8.2929001467412409e+00 6.3638168181362484e+00 1 0 0
195 20 2 0.0000000000000000e+00 -2.4467892501390628e+02 -6.2131560702735671e+00 1.8439886957867675e+01 0 0 0
5332 433 7 0.0000000000000000e+00 -2.6586813435557764e+02 -4.4715301834658945e+01 4.2109242282701501e+01 0 0 0
2415 242 6 0.0000000000000000e+00 -2.6147905631929723e+02 3.4674282280476788e+01 2.3245507010677319e+01 0 0 0
127 13 3 0.0000000000000000e+00 -2.9961096737982962e+02 3.1845507657818779e+01 2.1288905549276848e+01 0 0 0
2471 248 4 0.0000000000000000e+00 -2.6950952030064582e+02 3.4627738502092441e+01 3.4425395431009022e+01 0 0 0
54 6 3 0.0000000000000000e+00 -2.7984030366290443e+02 3.4928440935070903e+01 2.8893346014907106e+01 0 0 0
3024 303 5 0.0000000000000000e+00 -2.9002948241155116e+02 -5.3528669429589222e+00 4.0042397840173628e+01 0 0 0
4058 366 8 0.0000000000000000e+00 -2.7180489716886655e+02 -5.3065099123794814e+00 3.8938580102975799e+01 0 0 0
4059 366 7 0.0000000000000000e+00 -2.8054692715175344e+02 -4.0955719675224262e+00 3.4401516256574688e+01 0 0 0
53 6 2 0.0000000000000000e+00 -2.8646983372831068e+02 3.1941914702316609e+01 2.1475839267572425e+01 0 0 0
783 79 2 0.0000000000000000e+00 -2.6709699270393509e+02 1.1743285083662272e+00 2.9375308632643167e+00 1 0 0
4060 366 8 0.0000000000000000e+00 -2.8626205647059737e+02 -4.3926164393583607e+00 2.6134487766046107e+01 0 0 0
4061 366 8 0.0000000000000000e+00 -2.8519659493626045e+02 2.7257252856303320e+00 1.9024035678939118e+01 0 0 0
1822 183 6 0.0000000000000000e+00 -2.6826902953759947e+02 -3.0367890095378831e+00 2.2478332037971168e+01 1 0 0
4062 366 7 0.0000000000000000e+00 -2.7675444875570423e+02 3.8437727206346435e+00 1.2490212048183304e+01 0 0 0
4397 383 9 0.0000000000000000e+00 -2.4977458286173317e+02 1.6734795888659718e+01 2.9256061745459430e+01 0 0 0
782 79 2 0.0000000000000000e+00 -2.5690272331518582e+02 1.3404663567316593e+00 4.4888123418501458e+00 1 0 0
2755 276 6 0.0000000000000000e+00 -2.5299059999421812e+02 -3.8685976030296976e+00 3.6803509222408607e+01 0 0 0
2330 233 5 0.0000000000000000e+00 -2.9419544467410236e+02 1.0150086382034392e+01 2.0100404610034904e+01 0 0 0
781 79 1 0.0000000000000000e+00 -2.4749177296350521e+02 4.2152456254635124e+00 8.4781800000000000e+00 1 0 0
1823 183 6 0.0000000000000000e+00 -2.6954020987262027e+02 3.9011450407108934e+00 2.9609631397503851e+01 1 0 0
2411 242 4 0.0000000000000000e+00 -2.4093298980493381e+02 6.6819437831394497e+00 1.9841319884971998e+01 0 0 0
200 20 3 0.0000000000000000e+00 -2.3695390039989033e+02 1.0505065678577877e+01 2.8915599437698378e+00 0 0 0
1826 183 6 0.0000000000000000e+00 -2.8777769856240326e+02 2.2699315310006668e+01 3.1393772806559870e+01 1 0 0
1825 183 6 0.0000000000000000e+00 -2.8450535083538301e+02 1.3912259406987626e+01 2.7401677791573576e+01 1 0 0
1824 183 5 0.0000000000000000e+00 -2.7774172567135122e+02 6.8700125472763478e+00 2.4590896608283355e+01 1 0 0
4063 366 8 0.0000000000000000e+00 -2.6686108023968268e+02 3.0937936405775970e+00 1.3673343624308725e+01 0 0 0
2412 242 6 0.0000000000000000e+00 -2.4362020565504270e+02 1.5892224778393148e+01 2.0646908607060691e+01 0 0 0
2131 214 4 0.0000000000000000e+00 -2.4774775204816879e+02 1.4082756815393033e+01 3.6857567533714648e+00 0 0 0
2132 214 6 0.0000000000000000e+00 -2.5094964437172536e+02 2.3419282438913473e+01 2.8624862576523613e+00 0 0 0
1967 197 5 0.0000000000000000e+00 -2.5938216340278001e+02 9.4803077555773232e+00 2.3165021133776349e+01 0 0 0
2414 242 5 0.0000000000000000e+00 -2.5190964513690435e+02 3.1970918716340091e+01 2.0568928771141721e+01 0 0 0
1968 197 6 0.0000000000000000e+00 -2.5015022334080024e+02 7.3448871514917888e+00 2.2331970900896870e+01 0 0 0
2413 242 6 0.0000000000000000e+00 -2.4707828299502185e+02 2.4297175715231166e+01 2.4213738160563416e+01 0 0 0
4064 366 8 0.0000000000000000e+00 -2.5890582902230210e+02 1.0088947134580376e+01 1.2173359030358034e+01 0 0 0
4065 366 7 0.0000000000000000e+00 -2.5470287310260483e+02 1.7754412285287469e+01 1.7085934458604832e+01 0 0 0
1966 197 6 0.0000000000000000e+00 -2.6664703020417778e+02 1.3394074927913410e+01 2.9398519201006845e+01 0 0 0
1965 197 6 0.0000000000000000e+00 -2.7188410939669205e+02 1.7502492167495944e+01 3.6893142502125436e+01 0 0 0
1970 197 5 0.0000000000000000e+00 -2.3752687010321617e+02 3.5900233029166868e+00 3.7715989677185817e+01 0 0 0
4066 366 8 0.0000000000000000e+00 -2.6388732128823585e+02 1.9988503475584658e+01 2.0304002069074119e+01 0 0 0
1969 197 6 0.0000000000000000e+00 -2.4505691520707973e+02 5.2195249232178629e+00 3.1481510529151620e+01 0 0 0
1962 197 6 0.0000000000000000e+00 -2.8893070607517751e+02 3.0836386247012886e+01 3.7279526293767724e+01 0 0 0
2417 242 5 0.0000000000000000e+00 -2.6472340957753761e+02 2.4959844390713510e+01 3.6778631503438490e+01 0 0 0
2133 214 6 0.0000000000000000e+00 -2.4356886057180958e+02 3.0498148757832958e+01 2.2846208058230428e+00 0 0 0
2756 276 6 0.0000000000000000e+00 -2.5963686917050126e+02 3.4642800660150739e+00 4.0426607267777690e+01 0 0 0
2416 242 6 0.0000000000000000e+00 -2.6671258390817798e+02 2.7755524278625206e+01 2.7849300359829115e+01 0 0 0
2134 214 5 0.0000000000000000e+00 -2.3660189421662730e+02 3.1771326974576674e+01 9.9871092749157722e+00 0 0 0
5629 490 11 0.0000000000000000e+00 -2.3966861950400931e+02 1.9787323117018943e+01 4.0124982755331779e+01 0 0 0
4067 366 8 0.0000000000000000e+00 -2.7289232350180612e+02 1.9562967659748690e+01 1.6056605280089858e+01 0 0 0
4396 383 8 0.0000000000000000e+00 -2.4055737974569988e+02 1.3411204270159795e+01 3.1811403349011417e+01 0 0 0
5630 490 10 0.0000000000000000e+00 -2.4513487949962192e+02 2.5334194290837633e+01 3.4676452720654765e+01 0 0 0
52 6 2 0.0000000000000000e+00 -2.8685188221808050e+02 3.5022650387150392e+01 1.2081776441950339e+01 0 0 0
4069 366 8 0.0000000000000000e+00 -2.6456005591712312e+02 2.9436449622596975e+01 7.7976861104763708e+00 0 0 0
51 6 1 0.0000000000000000e+00 -2.7954791880954923e+02 3.3820149401604624e+01 5.0072700000000001e+00 0 0 0
1827 183 5 0.0000000000000000e+00 -2.9386339116467775e+02 1.4895900420867092e+01 3.3030476170160718e+01 1 0 0
4068 366 7 0.0000000000000000e+00 -2.7257339637620743e+02 2.3872153598419189e+01 6.7401119122546937e+00 0 0 0
2329 233 6 0.0000000000000000e+00 -2.9585264484223740e+02 3.8800279340528392e+00 2.7707508728386486e+01 0 0 0
197 20 3 0.0000000000000000e+00 -2.3495112801150040e+02 -3.9769304994681087e-01 2.6995868248194281e+01 0 0 0
3520 337 7 0.0000000000000000e+00 -2.9886355365531938e+02 2.2413283976664250e+01 2.6776988381998244e+01 0 0 0
199 20 2 0.0000000000000000e+00 -2.3438472183431304e+02 7.7185400784615510e+00 1.2489647104103858e+01 0 0 0
3992 362 7 0.0000000000000000e+00 -2.4860528914518596e+02 7.0341828416435428e+00 4.1373355863799148e+01 0 0 0
1963 197 6 0.0000000000000000e+00 -2.7937123409959440e+02 2.8823024721369585e+01 3.9992610226155726e+01 0 0 0
3519 337 8 0.0000000000000000e+00 -2.9798949861292084e+02 1.9574289140752015e+01 1.6865166777675299e+01 0 0 0
2328 233 6 0.0000000000000000e+00 -2.9937381946833335e+02 9.6531563682168742e-01 3.7041781633381085e+01 0 0 0
2472 248 6 0.0000000000000000e+00 -2.5910956126921627e+02 3.3826185802660000e+01 3.7310265368921769e+01 0 0 0
4070 366 8 0.0000000000000000e+00 -2.5796763278502607e+02 3.5169001866816771e+01 1.3533782149584205e+01 0 0 0
3518 337 8 0.0000000000000000e+00 -2.9956224149892785e+02 1.3828885918034590e+01 9.3427817080435247e+00 0 0 0
5628 490 10 0.0000000000000000e+00 -2.3212571797188323e+02 2.6311844850523062e+01 4.1186481897915165e+01 0 0 0
3521 337 8 0.0000000000000000e+00 -2.9718742497972249e+02 2.5539895135035909e+01 3.6323184091169935e+01 0 0 0
2076 208 6 0.0000000000000000e+00 -2.9028235779031940e+02 -1.9813149055141267e+02 4.3553222060517378e+01 0 0 0
3940 359 8 0.0000000000000000e+00 -2.8301692443666445e+02 -9.7190283728419956e+01 7.5273409867151031e+01 0 0 0
3941 359 9 0.0000000000000000e+00 -2.7776385247470068e+02 -9.5887024703718652e+01 8.3509719567293104e+01 0 0 0
5584 475 11 0.0000000000000000e+00 -2.9802971949775753e+02 -9.3044528278519707e+01 8.3146650038471151e+01 0 0 0
1858 186 6 0.0000000000000000e+00 -2.9226039718153260e+02 -9.5132627625648979e+01 5.8658466246423679e+01 1 0 0
1859 186 6 0.0000000000000000e+00 -2.8353178734779254e+02 -9.6222712603098245e+01 5.5184718494109198e+01 1 0 0
3938 359 7 0.0000000000000000e+00 -2.9715293963672286e+02 -9.2507902415022897e+01 7.1953830733113492e+01 0 0 0
3939 359 8 0.0000000000000000e+00 -2.9083520676414628e+02 -9.9831997966059760e+01 7.0024992640824124e+01 0 0 0
1860 186 5 0.0000000000000000e+00 -2.7593172913277084e+02 -8.9191670741757719e+01 5.4438821002055796e+01 1 0 0
758 76 2 0.0000000000000000e+00 -2.9578342534037648e+02 -6.9600599023508806e+01 4.6260131240728356e+01 0 0 0
3937 359 8 0.0000000000000000e+00 -2.8895218333749239e+02 -8.8669256826557245e+01 7.6083068925074670e+01 0 0 0
4323 380 8 0.0000000000000000e+00 -2.4072423541004645e+02 -6.4136318686115231e+01 4.8597187352471011e+01 1 0 0
947 95 5 0.0000000000000000e+00 -2.9915879521673719e+02 -6.1960390053716957e+01 7.9149798277307283e+01 0 0 0
2840 284 5 0.0000000000000000e+00 -2.9717398097194240e+02 -8.6559268981413524e+01 6.2743233668254618e+01 1 0 0
2599 260 6 0.0000000000000000e+00 -2.6073523826370337e+02 -6.4385114024359837e+01 4.4068592734880191e+01 1 0 0
3936 359 8 0.0000000000000000e+00 -2.8044878245805188e+02 -8.3809278926765742e+01 7.8624125357784308e+01 0 0 0
5338 433 7 0.0000000000000000e+00 -2.5307711215184113e+02 -4.9230046834868872e+01 4.6288786136087339e+01 0 0 0
937 94 5 0.0000000000000000e+00 -2.7126850858023545e+02 -5.5381327580276242e+01 5.0971819131164395e+01 1 0 0
3934 359 8 0.0000000000000000e+00 -2.7465137593432621e+02 -6.6943669498777922e+01 7.7789516722514719e+01 0 0 0
2598 260 6 0.0000000000000000e+00 -2.5752662643510013e+02 -6.3357577784551303e+01 5.3123200277058572e+01 1 0 0
2597 260 5 0.0000000000000000e+00 -2.4778055696185075e+02 -6.3703594657494470e+01 5.5244655883417138e+01 1 0 0
938 94 6 0.0000000000000000e+00 -2.7538882775757793e+02 -5.7713360996943841e+01 5.9515812101156982e+01 1 0 0
939 94 6 0.0000000000000000e+00 -2.7134471383299683e+02 -6.4552187359503620e+01 5.3145431851459911e+01 1 0 0
940 94 5 0.0000000000000000e+00 -2.6532013197754242e+02 -7.2145400127292490e+01 5.2263676259113382e+01 1 0 0
760 76 3 0.0000000000000000e+00 -2.9833983206667295e+02 -7.2234198605887627e+01 6.4718328358427243e+01 0 0 0
941 95 4 0.0000000000000000e+00 -2.9238183700603958e+02 -7.8181474291370904e+01 7.2769258002180877e+01 0 0 0
3933 359 8 0.0000000000000000e+00 -2.7328431632031032e+02 -6.0204648809883864e+01 7.0230655157313080e+01 0 0 0
3932 359 7 0.0000000000000000e+00 -2.8273172508131125e+02 -6.1030232086793966e+01 7.0269211192573422e+01 0 0 0
5337 433 8 0.0000000000000000e+00 -2.6139385433636971e+02 -5.2857672512709058e+01 4.9677692560326008e+01 0 0 0
3935 359 7 0.0000000000000000e+00 -2.7546041675119955e+02 -7.5354677749848548e+01 8.2445145337822737e+01 0 0 0
4322 380 7 0.0000000000000000e+00 -2.3987834898943524e+02 -7.1892446298342563e+01 5.4502027863579102e+01 1 0 0
942 95 6 0.0000000000000000e+00 -2.8633684867537522e+02 -7.0843874946971951e+01 7.4241654843378200e+01 0 0 0
944 95 5 0.0000000000000000e+00 -2.8356195843685100e+02 -5.3419025808978894e+01 7.9850128411386237e+01 0 0 0
2596 260 6 0.0000000000000000e+00 -2.3859491529780558e+02 -5.9393357486857624e+01 5.7469646402386374e+01 1 0 0
3931 359 8 0.0000000000000000e+00 -2.9086335934302383e+02 -5.7655796430236570e+01 6.4419845213121476e+01 0 0 0
3930 359 8 0.0000000000000000e+00 -2.8307846053843446e+02 -5.0908538376105902e+01 6.3270191035751402e+01 0 0 0
2559 256 6 0.0000000000000000e+00 -2.6076917832648746e+02 -5.1056456854388536e+01 7.7375870696946507e+01 0 0 0
943 95 6 0.0000000000000000e+00 -2.8846174628079899e+02 -6.2357029560826845e+01 7.8443026980566515e+01 0 0 0
2560 256 5 0.0000000000000000e+00 -2.6418744568053876e+02 -4.8413433578168707e+01 6.8261674651841119e+01 0 0 0
946 95 6 0.0000000000000000e+00 -2.9594567839988770e+02 -5.4240162396687609e+01 8.5532797882301310e+01 0 0 0
5336 433 8 0.0000000000000000e+00 -2.6556866524578999e+02 -4.9465759455747389e+01 5.7727888749899492e+01 0 0 0
4012 363 8 0.0000000000000000e+00 -2.3674859545661195e+02 -4.8277292186572367e+01 8.4431951866738871e+01 0 0 0
759 76 2 0.0000000000000000e+00 -2.9747344633871882e+02 -7.3691799559412686e+01 5.4646460376192252e+01 0 0 0
949 95 6 0.0000000000000000e+00 -2.9983400541583683e+02 -8.0008019799969091e+01 7.9657478591383367e+01 0 0 0
3927 359 8 0.0000000000000000e+00 -2.9905501309294795e+02 -3.4067058526928605e+01 4.7911981682570030e+01 0 0 0
2085 209 6 0.0000000000000000e+00 -2.3277540267466503e+02 -1.1987870667821774e+01 5.2441266557738778e+01 0 0 0
4523 390 8 0.0000000000000000e+00 -2.9606169527522718e+02 -4.7720368179072800e+01 6.6619380927457328e+01 1 0 0
936 94 6 0.0000000000000000e+00 -2.7471971636992652e+02 -4.6918278058173975e+01 4.7236415161207020e+01 1 0 0
2901 291 4 0.0000000000000000e+00 -2.8427106954182307e+02 -2.3705965012095110e+01 4.4133404495764431e+01 0 0 0
2084 209 5 0.0000000000000000e+00 -2.3886606000423421e+02 -1.2878003429087469e+01 4.4087016154426010e+01 0 0 0
2905 291 6 0.0000000000000000e+00 -2.9754073100646394e+02 -1.5334355496400530e+01 7.3156418487846409e+01 0 0 0
4359 381 9 0.0000000000000000e+00 -2.5332800913913528e+02 -3.4976113027295838e+01 4.5257631839637988e+01 0 0 0
4013 363 8 0.0000000000000000e+00 -2.3811905778914928e+02 -4.0146980045329499e+01 7.8645126660878248e+01 0 0 0
4455 387 7 0.0000000000000000e+00 -2.8534809859015752e+02 -3.0934874830560936e+01 8.5521107563084314e+01 1 0 0
3928 359 8 0.0000000000000000e+00 -2.9110864564640138e+02 -4.0179956815759049e+01 5.0254890426004373e+01 0 0 0
2765 277 6 0.0000000000000000e+00 -2.4071244628566456e+02 -2.4871636750457487e+01 4.3812124046196594e+01 0 0 0
2902 291 6 0.0000000000000000e+00 -2.8891852180244945e+02 -2.1344799339361618e+01 5.2319181407837434e+01 0 0 0
5335 433 7 0.0000000000000000e+00 -2.7094704928664970e+02 -4.2130436814456388e+01 6.3183308087855842e+01 0 0 0
3025 303 6 0.0000000000000000e+00 -2.8655145923833464e+02 -9.6979968672062959e+00 4.8564005722023715e+01 0 0 0
935 94 6 0.0000000000000000e+00 -2.7026240086965737e+02 -4.0792106888210590e+01 5.3802878585127594e+01 1 0 0
4358 381 8 0.0000000000000000e+00 -2.4761392187006018e+02 -2.9379832290327524e+01 5.1488478492417045e+01 0 0 0
3929 359 7 0.0000000000000000e+00 -2.8461180447914143e+02 -4.5606901433881518e+01 5.5285371804762491e+01 0 0 0
2768 277 6 0.0000000000000000e+00 -2.5630892104510531e+02 -2.0988069105639727e+01 4.7939925667744838e+01 0 0 0
4016 363 8 0.0000000000000000e+00 -2.5448908854789306e+02 -2.6384667376899628e+01 6.9720541941010225e+01 0 0 0
2769 277 6 0.0000000000000000e+00 -2.6494821786464104e+02 -2.6421691301616992e+01 4.9117128245871207e+01 0 0 0
2903 291 6 0.0000000000000000e+00 -2.9695698042161155e+02 -1.8328067369157104e+01 5.7104154675712230e+01 0 0 0
2904 291 5 0.0000000000000000e+00 -2.9141113973100897e+02 -1.8090555884128054e+01 6.5889793363529535e+01 0 0 0
5333 433 8 0.0000000000000000e+00 -2.6070832973716631e+02 -4.2623090498527951e+01 5.0573742935080517e+01 0 0 0
934 94 5 0.0000000000000000e+00 -2.7881969255081106e+02 -3.7029687486814481e+01 5.8530790583575097e+01 1 0 0
5334 433 8 0.0000000000000000e+00 -2.6144497052412862e+02 -4.0555382195181558e+01 6.0683092848552420e+01 0 0 0