LAMMPS data file via write_data, version 5 Jun 2019, timestep = 360000000

5660 atoms
11 atom types
5948 bonds
7 bond types
4660 angles
4 angle types

-3.0000000000000000e+02 3.0000000000000000e+02 xlo xhi
-3.0000000000000000e+02 3.0000000000000000e+02 ylo yhi
0.0000000000000000e+00 3.0000000000000000e+02 zlo zhi

Masses

1 1000
2 450
3 450
4 11000
5 7000
6 450
7 450
8 450
9 450
10 450
11 20000

Pair Coeffs # lj/cut

1 0.24 10
2 0.24 10
3 0.24 10
4 0.24 10
5 0.24 10
6 0.24 10
7 0.24 10
8 0.24 10
9 0.24 10
10 0.24 10
11 0.24 30

Angle Coeffs # cosine

1 1
2 1
3 1
4 1

Atoms # full

5553 465 10 0.0000000000000000e+00 -2.7616111731899252e+02 -1.8994257949921555e+02 3.6154003051759219e+01 0 0 0
5554 465 11 0.0000000000000000e+00 -2.8058095710538970e+02 -1.9772526003992206e+02 3.9695844680625065e+01 0 0 0
3897 357 7 0.0000000000000000e+00 -2.7789975893804819e+02 -1.9076903783673950e+02 2.1625570882950058e+01 1 0 0
3896 357 8 0.0000000000000000e+00 -2.8744106488238793e+02 -1.9456661255679407e+02 2.3209123525669618e+01 1 0 0
3898 357 8 0.0000000000000000e+00 -2.6922578181740136e+02 -1.8549192687912321e+02 2.3122480027556662e+01 1 0 0
3903 357 9 0.0000000000000000e+00 -2.7257721493294241e+02 -1.9923856230676134e+02 3.0769603912351673e+01 1 0 0
2084 209 5 0.0000000000000000e+00 -2.8359215374960905e+02 -1.8382169746524872e+02 2.8373366141112697e+01 0 0 0
3899 357 8 0.0000000000000000e+00 -2.6005643959280138e+02 -1.8467127593212814e+02 2.0405846935497440e+01 1 0 0
3895 357 8 0.0000000000000000e+00 -2.9701224626577465e+02 -1.9474178276505828e+02 2.4756910743199356e+01 1 0 0
2083 209 6 0.0000000000000000e+00 -2.9193866390623793e+02 -1.8633889650563410e+02 2.4386987815814415e+01 0 0 0
3902 357 8 0.0000000000000000e+00 -2.6298059809704080e+02 -1.9850825190939045e+02 3.1594134079897493e+01 1 0 0
3900 357 7 0.0000000000000000e+00 -2.5689386663316549e+02 -1.9371423858974242e+02 2.1199518863068505e+01 1 0 0
3892 357 8 0.0000000000000000e+00 -2.9966380000206692e+02 -1.7920154729663307e+02 2.2191637359925977e+01 1 0 0
3901 357 8 0.0000000000000000e+00 -2.5335609403815297e+02 -1.9736513325513482e+02 2.9494756236678043e+01 1 0 0
2082 209 6 0.0000000000000000e+00 -2.9182532029983923e+02 -1.7727421262504609e+02 2.9244185024316465e+01 0 0 0
2085 209 6 0.0000000000000000e+00 -2.7949294049097966e+02 -1.7453953531620292e+02 3.0872171612302676e+01 0 0 0
2086 209 6 0.0000000000000000e+00 -2.8008900743471156e+02 -1.6557414233127309e+02 2.6259590961877954e+01 0 0 0
2087 209 5 0.0000000000000000e+00 -2.8464050524095558e+02 -1.5789427126619807e+02 2.0900207422329867e+01 0 0 0
3888 357 7 0.0000000000000000e+00 -2.8195680572368263e+02 -1.4692943609692642e+02 1.7426378591247641e+01 1 0 0
3887 357 8 0.0000000000000000e+00 -2.7646651811132028e+02 -1.4539555121680331e+02 2.4682313520586948e+01 1 0 0
3889 357 8 0.0000000000000000e+00 -2.8721413236122686e+02 -1.5329353795752138e+02 1.2031325797943898e+01 1 0 0
2088 209 6 0.0000000000000000e+00 -2.9057580140579796e+02 -1.5157939365793760e+02 2.4587257141466271e+01 0 0 0
3890 357 8 0.0000000000000000e+00 -2.9230330726320938e+02 -1.6279118104114059e+02 1.3825411598570552e+01 1 0 0
3891 357 7 0.0000000000000000e+00 -2.9705220898422823e+02 -1.7039366778856106e+02 1.8617385876819220e+01 1 0 0
2089 209 6 0.0000000000000000e+00 -2.9485089661565610e+02 -1.6005375067218296e+02 2.6960996716460283e+01 0 0 0
3886 357 8 0.0000000000000000e+00 -2.6781167093265208e+02 -1.4300160209168050e+02 2.8341027999137168e+01 1 0 0
2081 209 4 0.0000000000000000e+00 -2.9854073585412806e+02 -1.7340988083210917e+02 3.6088492992894878e+01 0 0 0
31 4 1 0.0000000000000000e+00 -1.7451537063833231e+02 -1.3813229109520807e+02 4.7217000000000002e+00 0 0 0
2214 222 5 0.0000000000000000e+00 -1.3389026204966240e+02 -1.3978075910418187e+02 3.5073593581014833e+01 0 0 0
32 4 2 0.0000000000000000e+00 -1.6419200741170604e+02 -1.3927851677267495e+02 4.2458496322926305e+00 0 0 0
2215 222 6 0.0000000000000000e+00 -1.4355302677152133e+02 -1.4201332821688109e+02 3.8395086676650784e+01 0 0 0
5121 422 8 0.0000000000000000e+00 -1.3074725269318023e+02 -1.4306903700017750e+02 2.4484213482995926e+01 0 0 0
3885 357 7 0.0000000000000000e+00 -2.6786518553923077e+02 -1.3393025498738632e+02 3.1298961017489503e+01 1 0 0
33 4 2 0.0000000000000000e+00 -1.5542651409508187e+02 -1.3489810709023863e+02 7.4299216589958350e+00 0 0 0
5122 422 8 0.0000000000000000e+00 -1.3444450432016913e+02 -1.3399620937302470e+02 2.0860784849311450e+01 0 0 0
34 4 3 0.0000000000000000e+00 -1.4818666367441824e+02 -1.3515051465552307e+02 1.4959510725709832e+01 0 0 0
5123 422 7 0.0000000000000000e+00 -1.3116173436707385e+02 -1.3126929070401982e+02 2.9346204008549531e+01 0 0 0
35 4 2 0.0000000000000000e+00 -1.4640102459645169e+02 -1.2508200488530422e+02 1.5142109481531648e+01 0 0 0
36 4 2 0.0000000000000000e+00 -1.4715969684405241e+02 -1.1501716642264982e+02 1.2191238969528962e+01 0 0 0
37 4 3 0.0000000000000000e+00 -1.4339360413057332e+02 -1.0661538486736863e+02 8.0840516161025739e+00 0 0 0
38 4 2 0.0000000000000000e+00 -1.3665897816184469e+02 -1.0683754909204303e+02 1.4970363596373163e+01 0 0 0
2220 222 5 0.0000000000000000e+00 -1.3709359266297881e+02 -9.8460710656920526e+01 3.2061880780944769e+01 0 0 0
2217 222 5 0.0000000000000000e+00 -1.4558769322262719e+02 -1.2470123504375624e+02 3.2968735406478316e+01 0 0 0
2216 222 6 0.0000000000000000e+00 -1.4319225696435129e+02 -1.3186228500665104e+02 3.8353225529249919e+01 0 0 0
1714 172 5 0.0000000000000000e+00 -1.3028818587103621e+02 -1.0781708589091799e+02 6.3117210173809895e+00 0 0 0
2219 222 6 0.0000000000000000e+00 -1.3854963293988939e+02 -1.0843796912622425e+02 3.0120293319695978e+01 0 0 0
5126 422 7 0.0000000000000000e+00 -1.3583102682377350e+02 -1.0563878386480283e+02 4.0148912411491501e+01 0 0 0
39 4 2 0.0000000000000000e+00 -1.2960400508071231e+02 -1.1148789077438950e+02 2.0548571925578734e+01 0 0 0
2218 222 6 0.0000000000000000e+00 -1.4007491641878596e+02 -1.1706751631501000e+02 3.5098328249330990e+01 0 0 0
291 30 1 0.0000000000000000e+00 -1.5277527068180152e+02 -1.0058096812673176e+02 5.0072700000000001e+00 0 0 0
40 4 3 0.0000000000000000e+00 -1.3009427046806971e+02 -1.0185575403021745e+02 2.2479746361295867e+01 0 0 0
1715 172 6 0.0000000000000000e+00 -1.3417302356641753e+02 -9.8403898702801584e+01 9.1930378170408176e+00 0 0 0
5125 422 8 0.0000000000000000e+00 -1.3131374827197226e+02 -1.1226059158128031e+02 3.3398888971998069e+01 0 0 0
5124 422 8 0.0000000000000000e+00 -1.3169370119505541e+02 -1.2150254211568641e+02 2.9269846091546341e+01 0 0 0
943 95 6 0.0000000000000000e+00 -2.6734079119615944e+02 -9.6207732420605467e+01 2.5172946224966044e+01 0 0 0
945 95 6 0.0000000000000000e+00 -2.7564298423788182e+02 -9.6245664293339615e+01 3.8517176535695469e+01 0 0 0
944 95 5 0.0000000000000000e+00 -2.7100050840432021e+02 -9.0135577669346262e+01 3.2276558560962698e+01 0 0 0
751 76 1 0.0000000000000000e+00 -2.8907172646404393e+02 -7.2607971854313220e+01 6.8810700000000002e+00 0 0 0
752 76 2 0.0000000000000000e+00 -2.8377934495018513e+02 -7.3682174808268499e+01 1.5786974078588170e+01 0 0 0
941 95 4 0.0000000000000000e+00 -2.6485820101386958e+02 -8.2192284046866448e+01 1.1822926037938554e+01 0 0 0
942 95 6 0.0000000000000000e+00 -2.6486337244839046e+02 -9.1796716373346257e+01 1.6694091262845273e+01 0 0 0
753 76 2 0.0000000000000000e+00 -2.7723744684770764e+02 -8.1453116104634560e+01 1.9272310033002334e+01 0 0 0
661 67 1 0.0000000000000000e+00 -2.8033921891812076e+02 -6.5493671848639210e+01 7.9355000000000002e+00 1 0 0
754 76 3 0.0000000000000000e+00 -2.6798776098460672e+02 -8.0124228963812101e+01 2.2183484446377722e+01 0 0 0
755 76 2 0.0000000000000000e+00 -2.6088681236213125e+02 -8.7157379555835519e+01 2.3760684614953032e+01 0 0 0
662 67 2 0.0000000000000000e+00 -2.8829567453466029e+02 -6.1131928900582373e+01 4.9062487364131133e+00 1 0 0
946 95 6 0.0000000000000000e+00 -2.8473420205755167e+02 -9.2417162452725989e+01 4.0655556053984384e+01 0 0 0
2752 276 6 0.0000000000000000e+00 -2.8792972926540938e+02 -5.8237780900815878e+01 2.3712342760052952e+01 0 0 0
759 76 2 0.0000000000000000e+00 -2.6055847620774108e+02 -6.3235785603879897e+01 3.9302714823086816e+01 0 0 0
758 76 2 0.0000000000000000e+00 -2.5594420537955503e+02 -6.6320603020911932e+01 3.1114927765374595e+01 0 0 0
756 76 2 0.0000000000000000e+00 -2.5198340172086779e+02 -8.2007214618712737e+01 2.2155857329054196e+01 0 0 0
1961 197 4 0.0000000000000000e+00 -2.4151871437786602e+02 -6.7176175096105112e+01 3.1905919280704854e+01 0 0 0
1962 197 6 0.0000000000000000e+00 -2.3599546199491530e+02 -7.3630525746288654e+01 3.7882411138752630e+01 0 0 0
757 76 3 0.0000000000000000e+00 -2.4994696786199566e+02 -7.2763716317486498e+01 2.5882374323023004e+01 0 0 0
1964 197 5 0.0000000000000000e+00 -2.1784564058073880e+02 -7.2119052944661647e+01 4.0572327872290110e+01 0 0 0
1963 197 6 0.0000000000000000e+00 -2.2652324977778053e+02 -7.6273292529787881e+01 4.0684119433937290e+01 0 0 0
3401 331 8 0.0000000000000000e+00 -2.1433257194187613e+02 -5.8000493222609727e+01 3.2863963116062187e+01 0 0 0
4778 404 7 0.0000000000000000e+00 -1.9513540494544034e+02 -8.6309068479250769e+01 1.8535429777061761e+01 0 0 0
3398 331 8 0.0000000000000000e+00 -2.0667942644146828e+02 -7.2224464901003813e+01 2.6515193041978950e+01 0 0 0
3400 331 7 0.0000000000000000e+00 -2.0955277731212919e+02 -6.5092345251246130e+01 3.7522028453907666e+01 0 0 0
3399 331 8 0.0000000000000000e+00 -2.0376415995397463e+02 -7.2891151439629198e+01 3.5939728074542302e+01 0 0 0
4779 404 8 0.0000000000000000e+00 -1.8600964869576632e+02 -8.7790180197405633e+01 2.0353486461294327e+01 0 0 0
4780 404 8 0.0000000000000000e+00 -1.7908752671737258e+02 -8.8764621761285014e+01 1.3641292399402833e+01 0 0 0
3397 331 7 0.0000000000000000e+00 -2.0483539301280447e+02 -8.1638847387051399e+01 3.0054477769828338e+01 0 0 0
822 83 6 0.0000000000000000e+00 -1.9444354555084979e+02 -6.6359457430163715e+01 2.9007416927176749e+01 0 0 0
3396 331 8 0.0000000000000000e+00 -1.9465202046486107e+02 -7.9602071520639868e+01 2.9952054889300324e+01 0 0 0
577 58 3 0.0000000000000000e+00 -1.9620191634644431e+02 -7.1681561219423216e+01 1.2577271698702011e+01 0 0 0
3395 331 8 0.0000000000000000e+00 -1.8467946336616254e+02 -8.1220497616821916e+01 3.0203507344087473e+01 0 0 0
823 83 6 0.0000000000000000e+00 -1.9253320108946116e+02 -7.1963573182139129e+01 3.7166028860526247e+01 0 0 0
821 83 4 0.0000000000000000e+00 -1.9059465210025340e+02 -5.9125474876083210e+01 2.2783767419107750e+01 0 0 0
4781 404 7 0.0000000000000000e+00 -1.7270893758897321e+02 -8.1857698682712538e+01 1.0955644717450946e+01 0 0 0
578 58 2 0.0000000000000000e+00 -1.8813953931259445e+02 -7.3027659030398524e+01 1.9001590491373179e+01 0 0 0
579 58 2 0.0000000000000000e+00 -1.8437267368385344e+02 -7.1123894402070121e+01 2.8047589102143455e+01 0 0 0
580 58 3 0.0000000000000000e+00 -1.7842698321499975e+02 -6.7739013850946876e+01 3.5483995956051416e+01 0 0 0
1980 198 5 0.0000000000000000e+00 -1.7896595773313658e+02 -7.2912822934662586e+01 1.1083252334220854e+01 0 0 0
2241 225 4 0.0000000000000000e+00 -1.8225133020712994e+02 -5.7240956030119975e+01 3.4531478360948178e+01 0 0 0
3394 331 7 0.0000000000000000e+00 -1.7624350902595177e+02 -7.9341099426703167e+01 3.5137667517933657e+01 0 0 0
576 58 2 0.0000000000000000e+00 -2.0015322652485452e+02 -7.4179465523700614e+01 2.0480335233480620e+01 0 0 0
575 58 2 0.0000000000000000e+00 -2.0246261162104298e+02 -6.4442920872642290e+01 1.9873575754507844e+01 0 0 0
1979 198 6 0.0000000000000000e+00 -1.7602631365070710e+02 -7.0310595749268515e+01 2.0240183524648490e+01 0 0 0
824 83 5 0.0000000000000000e+00 -1.8429278350686874e+02 -7.4843448357845745e+01 4.2054294393335034e+01 0 0 0
4782 404 8 0.0000000000000000e+00 -1.7000828764729823e+02 -8.0244344176036250e+01 2.0121832705530448e+01 0 0 0
572 58 2 0.0000000000000000e+00 -1.9243485240922865e+02 -6.1915364621281853e+01 6.9048896289448365e+00 0 0 0
573 58 2 0.0000000000000000e+00 -1.9618398995958455e+02 -5.6920545741067222e+01 1.5222176374648463e+01 0 0 0
2242 225 6 0.0000000000000000e+00 -1.7540176880807854e+02 -5.7417470436342853e+01 4.2484901753073679e+01 0 0 0
2248 225 6 0.0000000000000000e+00 -1.9682469864299424e+02 -5.7732856239739206e+01 4.2253647679641638e+01 0 0 0
3393 331 8 0.0000000000000000e+00 -1.6628334341171160e+02 -7.6756646363832502e+01 3.5188223322761580e+01 0 0 0
3391 331 7 0.0000000000000000e+00 -1.6259911347751350e+02 -6.1224145339721481e+01 4.0962834446033860e+01 0 0 0
3392 331 8 0.0000000000000000e+00 -1.5953571223445272e+02 -7.0484939627437853e+01 3.8830766406983713e+01 0 0 0
4783 404 8 0.0000000000000000e+00 -1.6255622315574578e+02 -8.3764915788207404e+01 1.4196030663136352e+01 0 0 0
292 30 2 0.0000000000000000e+00 -1.5772571264891252e+02 -9.1860581129244053e+01 7.6750783429347154e+00 0 0 0
4786 404 8 0.0000000000000000e+00 -1.4681699711447314e+02 -8.8149845027263112e+01 3.5232438820380679e+01 0 0 0
4785 404 8 0.0000000000000000e+00 -1.5337069962122217e+02 -8.8516652114681307e+01 2.7737216746661755e+01 0 0 0
1977 198 5 0.0000000000000000e+00 -1.5919301038688454e+02 -7.2546182590038029e+01 2.6936489619054111e+01 0 0 0
4784 404 7 0.0000000000000000e+00 -1.5477072472597635e+02 -8.1393922840120922e+01 2.0647050891912464e+01 0 0 0
1978 198 6 0.0000000000000000e+00 -1.6836223178153801e+02 -6.9016616143269701e+01 2.6523612307288680e+01 0 0 0
294 30 3 0.0000000000000000e+00 -1.4738779311674091e+02 -7.6325713305627232e+01 1.3123572018779278e+01 0 0 0
293 30 2 0.0000000000000000e+00 -1.5270629986762540e+02 -8.3347055067697241e+01 1.0064399864880743e+01 0 0 0
295 30 2 0.0000000000000000e+00 -1.4378625121539088e+02 -6.9333974312911224e+01 1.9935834335017930e+01 0 0 0
1975 198 6 0.0000000000000000e+00 -1.4015420804682782e+02 -7.5395097545976355e+01 3.3797123619705765e+01 0 0 0
1976 198 6 0.0000000000000000e+00 -1.4981445121621903e+02 -7.4541981507147227e+01 2.9507059763914999e+01 0 0 0
1974 198 5 0.0000000000000000e+00 -1.3121944100559642e+02 -7.2647355893652076e+01 3.0364522040819907e+01 0 0 0
298 30 2 0.0000000000000000e+00 -1.5337693412828500e+02 -6.0449516698822144e+01 3.5323028420353459e+01 0 0 0
1717 172 5 0.0000000000000000e+00 -1.3135221340264113e+02 -8.0671147512388842e+01 1.1548890121858424e+01 0 0 0
5276 430 8 0.0000000000000000e+00 -1.3816159953447413e+02 -6.5320856464524724e+01 1.2952576528488169e+01 0 0 0
1894 190 5 0.0000000000000000e+00 -1.3679587714620953e+02 -8.5935877972886104e+01 4.2613165018474874e+01 0 0 0
296 30 2 0.0000000000000000e+00 -1.5168659849725407e+02 -6.5717405263599744e+01 2.5039572228614471e+01 0 0 0
297 30 3 0.0000000000000000e+00 -1.6034322961968721e+02 -6.1799840689426254e+01 2.7831038948892616e+01 0 0 0
5277 430 8 0.0000000000000000e+00 -1.2894539334271323e+02 -6.1873014273773123e+01 1.4433981759725127e+01 0 0 0
5275 430 7 0.0000000000000000e+00 -1.3305356543637060e+02 -7.1267514616367677e+01 6.8869869268922086e+00 0 0 0
1716 172 6 0.0000000000000000e+00 -1.3265620181819023e+02 -8.8823632855599882e+01 6.1807893155055380e+00 0 0 0
1973 198 6 0.0000000000000000e+00 -1.3260235241448311e+02 -6.2801300749298214e+01 2.8479371911274910e+01 0 0 0
1893 190 6 0.0000000000000000e+00 -1.3272004276340766e+02 -8.9388650538875254e+01 3.3107389982995414e+01 0 0 0
1972 198 6 0.0000000000000000e+00 -1.3392920070837326e+02 -5.8214162779592861e+01 3.7933683584576201e+01 0 0 0
1718 172 6 0.0000000000000000e+00 -1.2981496753001818e+02 -7.2404989929340658e+01 1.7423804712569954e+01 0 0 0
2753 276 6 0.0000000000000000e+00 -2.9461801457327073e+02 -5.5957147138895486e+01 3.1110774485403805e+01 0 0 0
663 67 2 0.0000000000000000e+00 -2.9081431916498246e+02 -5.1334945728897530e+01 3.6688906606107170e+00 1 0 0
2751 276 4 0.0000000000000000e+00 -2.8293071791956311e+02 -5.1105477895540467e+01 1.8762208431216276e+01 0 0 0
2418 242 6 0.0000000000000000e+00 -2.6172739257185896e+02 -3.2632474185535337e+01 1.7991434429704295e+01 0 0 0
2419 242 6 0.0000000000000000e+00 -2.6962153372131598e+02 -2.7498566677225863e+01 1.7394917507315270e+01 0 0 0
2420 242 5 0.0000000000000000e+00 -2.7846068056638904e+02 -3.1593862530124241e+01 1.5091219845751112e+01 0 0 0
3420 332 8 0.0000000000000000e+00 -2.6467529135146486e+02 -3.8983259464733862e+01 3.8753458123364652e+01 0 0 0
3421 332 8 0.0000000000000000e+00 -2.7064887327237847e+02 -3.3153642064898932e+01 3.2361401348240030e+01 0 0 0
664 67 3 0.0000000000000000e+00 -2.9231954951100130e+02 -4.8439757920898877e+01 1.3293806881959862e+01 1 0 0
665 67 2 0.0000000000000000e+00 -2.9009786035506249e+02 -3.8471023931288045e+01 1.2366254883547688e+01 1 0 0
666 67 2 0.0000000000000000e+00 -2.8606212624676994e+02 -3.2111020023607004e+01 5.3186593483821376e+00 1 0 0
3422 332 7 0.0000000000000000e+00 -2.7906356565126032e+02 -3.3685205491928777e+01 2.6867942276626305e+01 0 0 0
3423 332 8 0.0000000000000000e+00 -2.8519405219841821e+02 -2.6546622300683740e+01 2.7111302533510329e+01 0 0 0
2414 242 5 0.0000000000000000e+00 -2.5998635384109309e+02 -1.9683157291280057e+01 1.4803904447942651e+01 0 0 0
667 67 3 0.0000000000000000e+00 -2.9151248880049093e+02 -2.4647663462607920e+01 1.2451465180125796e+00 1 0 0
3424 332 8 0.0000000000000000e+00 -2.9427401200729969e+02 -2.4849187677028976e+01 3.3172587398646272e+01 0 0 0
3923 359 7 0.0000000000000000e+00 -2.5992784477551561e+02 -2.3578730629995960e+01 2.5143576332080801e+01 0 0 0
2417 242 5 0.0000000000000000e+00 -2.5671460275745858e+02 -3.8393695606059062e+01 2.4896236380161998e+01 0 0 0
936 94 6 0.0000000000000000e+00 -2.9405494887321049e+02 -1.6293943340007630e+01 2.0707921670077937e+01 1 0 0
668 67 2 0.0000000000000000e+00 -2.9836632037681557e+02 -2.3153687593848769e+01 8.9459105312326397e+00 1 0 0
5329 433 7 0.0000000000000000e+00 -2.5292703259487152e+02 -3.6718767285078059e+01 3.5202566803575081e+01 0 0 0
3924 359 8 0.0000000000000000e+00 -2.5454720797476480e+02 -1.9921689239311391e+01 3.3023623006380127e+01 0 0 0
2415 242 6 0.0000000000000000e+00 -2.5276701683706614e+02 -2.5930223521275977e+01 1.8235968504188463e+01 0 0 0
2416 242 6 0.0000000000000000e+00 -2.4986099081628467e+02 -3.0841496414528113e+01 2.6972442113144869e+01 0 0 0
5330 433 8 0.0000000000000000e+00 -2.4500077460718410e+02 -3.1279442674798030e+01 3.6532989702388498e+01 0 0 0
5333 433 8 0.0000000000000000e+00 -2.1739156156414916e+02 -3.1532393118321707e+01 2.6773501392624830e+01 0 0 0
5332 433 7 0.0000000000000000e+00 -2.2646340912219731e+02 -3.3782824882949377e+01 3.0361450778184874e+01 0 0 0
5331 433 8 0.0000000000000000e+00 -2.3515089517252596e+02 -3.2067168789167106e+01 3.4392205801436248e+01 0 0 0
1436 144 6 0.0000000000000000e+00 -2.1986608369467001e+02 -4.5312229769939620e+01 3.8143976778295517e+01 0 0 0
2761 277 4 0.0000000000000000e+00 -2.2719733190642668e+02 -4.0068390728224209e+01 4.1473926149285518e+01 0 0 0
1435 144 6 0.0000000000000000e+00 -2.2688248064764156e+02 -5.2326201279109476e+01 3.7491552188186908e+01 0 0 0
3934 359 8 0.0000000000000000e+00 -2.1369327572477960e+02 -2.1678389672094266e+01 4.1869981354787143e+01 0 0 0
3925 359 8 0.0000000000000000e+00 -2.5384724067958916e+02 -2.4886981337215580e+01 4.2009513014277296e+01 0 0 0
571 58 1 0.0000000000000000e+00 -1.8551692045375859e+02 -5.4940441377929488e+01 5.0072700000000001e+00 0 0 0
5334 433 8 0.0000000000000000e+00 -2.0934442911742693e+02 -3.3294901041159619e+01 3.2748075182092819e+01 0 0 0
574 58 3 0.0000000000000000e+00 -2.0086970594307473e+02 -5.5915591797218333e+01 2.4117946027721977e+01 0 0 0
1085 109 6 0.0000000000000000e+00 -1.7877445778568628e+02 -5.3362296145730049e+01 2.4435248148204433e+01 0 0 0
2250 225 5 0.0000000000000000e+00 -2.0691671679566065e+02 -4.7614278787369827e+01 2.8494975859510934e+01 0 0 0
5341 433 7 0.0000000000000000e+00 -1.8594611599997319e+02 -2.0133203297449725e+01 2.4132958293986526e+01 0 0 0
2910 291 5 0.0000000000000000e+00 -1.9574578212250935e+02 -2.4398480581927128e+01 2.3085191721378155e+01 0 0 0
2908 291 6 0.0000000000000000e+00 -1.9787544653726118e+02 -3.7165738989515610e+01 3.2670948801886595e+01 0 0 0
2909 291 6 0.0000000000000000e+00 -1.9616701828683185e+02 -3.4283243797679994e+01 2.3836166466335253e+01 0 0 0
5340 433 8 0.0000000000000000e+00 -1.8376813526122015e+02 -2.5840224803593248e+01 3.1859880131830391e+01 0 0 0
1086 109 6 0.0000000000000000e+00 -1.8266651554120946e+02 -4.5085606537088218e+01 2.9655327945503494e+01 0 0 0
2907 291 5 0.0000000000000000e+00 -1.9654706340120035e+02 -2.8273875158025589e+01 3.6985053871950342e+01 0 0 0
5335 433 7 0.0000000000000000e+00 -2.0752908316281111e+02 -4.0448796704455923e+01 3.8814161277532605e+01 0 0 0
1087 109 5 0.0000000000000000e+00 -1.7794722595190632e+02 -4.2004506351756817e+01 3.8019943059226662e+01 0 0 0
2249 225 6 0.0000000000000000e+00 -2.0123831211547790e+02 -5.2639298446119113e+01 3.4691806101265534e+01 0 0 0
1084 109 5 0.0000000000000000e+00 -1.7116132233339991e+02 -5.1384950378085925e+01 1.7810769704881199e+01 0 0 0
5339 433 8 0.0000000000000000e+00 -1.7688362847981389e+02 -2.8511643835776439e+01 3.8393885511276849e+01 0 0 0
2906 291 6 0.0000000000000000e+00 -1.9590216237223379e+02 -1.8043885952368321e+01 3.5998565390668894e+01 0 0 0
3935 359 7 0.0000000000000000e+00 -2.0566361939507993e+02 -2.6475246280202370e+01 4.1614218679848094e+01 0 0 0
3402 331 8 0.0000000000000000e+00 -2.1223251673743519e+02 -5.5821016481228895e+01 4.2123843489106328e+01 0 0 0
5338 433 7 0.0000000000000000e+00 -1.8526947339150661e+02 -3.3507262960863017e+01 4.0219955259016857e+01 0 0 0
5406 437 8 0.0000000000000000e+00 -1.4126911716302885e+02 -1.7347469090823491e+01 3.6377062527897586e+01 1 0 0
2962 297 6 0.0000000000000000e+00 -1.3991412248970468e+02 -1.9192952267988407e+01 1.6908891165023846e+01 0 0 0
2963 297 6 0.0000000000000000e+00 -1.3174744222300743e+02 -1.5716790270699079e+01 2.1233866801302995e+01 0 0 0
299 30 2 0.0000000000000000e+00 -1.5133384361500990e+02 -5.4159767307602394e+01 4.2485862540219976e+01 0 0 0
1088 109 6 0.0000000000000000e+00 -1.6922880589243616e+02 -4.1393467178878979e+01 4.2239429021551558e+01 0 0 0
316 32 2 0.0000000000000000e+00 -1.6306326837907054e+02 -1.5447992570123702e+01 4.0875309826207612e+01 0 0 0
765 77 2 0.0000000000000000e+00 -1.5199182418613552e+02 -2.2515474934265605e+01 1.5474794855994501e+01 0 0 0
1083 109 6 0.0000000000000000e+00 -1.6162229081017563e+02 -5.1111522947452386e+01 1.9252441063957978e+01 0 0 0
768 77 2 0.0000000000000000e+00 -1.3564382973869505e+02 -2.3859286764392138e+01 2.8939624430598617e+01 0 0 0
1082 109 6 0.0000000000000000e+00 -1.5468772450476021e+02 -5.3631722775547026e+01 2.5729665765036721e+01 0 0 0
1081 109 4 0.0000000000000000e+00 -1.5948079668962006e+02 -5.2826299820830982e+01 3.4492068849037580e+01 0 0 0
1361 137 4 0.0000000000000000e+00 -1.4060474938422968e+02 -3.7756280251148560e+01 3.2140278174473757e+01 0 0 0
1362 137 6 0.0000000000000000e+00 -1.4645598948305346e+02 -3.0214854773200400e+01 3.0126629516782391e+01 0 0 0
1363 137 6 0.0000000000000000e+00 -1.5389746594171200e+02 -3.1481909258631983e+01 3.6066236372564418e+01 0 0 0
766 77 2 0.0000000000000000e+00 -1.4596209696332474e+02 -3.0477143771772202e+01 1.7111697047901561e+01 0 0 0
767 77 3 0.0000000000000000e+00 -1.3796476180480542e+02 -3.2356760265456231e+01 2.3378893057205069e+01 0 0 0
2587 259 5 0.0000000000000000e+00 -1.2744360974145495e+02 -5.1877395735575107e+01 2.7596078261789504e+01 0 0 0
2588 259 6 0.0000000000000000e+00 -1.2828984560010841e+02 -4.8614637347601224e+01 1.8472480280426101e+01 0 0 0
2961 297 4 0.0000000000000000e+00 -1.4380660669065816e+02 -1.8061008976493028e+01 7.8647399379189773e+00 0 0 0
1971 198 4 0.0000000000000000e+00 -1.3261182900188248e+02 -4.8957571645975698e+01 4.2266998617230570e+01 0 0 0
300 30 3 0.0000000000000000e+00 -1.4288441713201684e+02 -5.1358680424370654e+01 3.7780768612149274e+01 0 0 0
5405 437 7 0.0000000000000000e+00 -1.4933720817310765e+02 -2.1842754829719819e+01 3.9858565914229125e+01 1 0 0
764 77 3 0.0000000000000000e+00 -1.5419732480169242e+02 -1.6982775255291145e+01 7.6714401382931907e+00 0 0 0
5555 465 10 0.0000000000000000e+00 -2.8428634468942926e+02 -1.9498440316405495e+02 4.8611199800756786e+01 0 0 0
2213 222 6 0.0000000000000000e+00 -1.2837494461280900e+02 -1.4235267865072464e+02 4.3480210495593091e+01 0 0 0
5127 422 8 0.0000000000000000e+00 -1.3327068372660750e+02 -1.0695165005677092e+02 4.9776973767825446e+01 0 0 0
4788 404 8 0.0000000000000000e+00 -1.4838591091458909e+02 -9.6670213207651273e+01 5.1869000357543513e+01 0 0 0
5128 422 8 0.0000000000000000e+00 -1.2685098263815993e+02 -1.1285758073235141e+02 4.5691915674334105e+01 0 0 0
948 95 6 0.0000000000000000e+00 -2.7839078788467720e+02 -9.1549643174247564e+01 5.9053430563826787e+01 0 0 0
949 95 6 0.0000000000000000e+00 -2.8809382672019444e+02 -9.3630742622937333e+01 5.9224409962453123e+01 0 0 0
947 95 5 0.0000000000000000e+00 -2.8291599841697996e+02 -9.0657847799745397e+01 5.0271476448966510e+01 0 0 0
950 95 5 0.0000000000000000e+00 -2.9740118899708460e+02 -9.2717415403510586e+01 5.5650417182748711e+01 0 0 0
760 76 3 0.0000000000000000e+00 -2.6136703853295523e+02 -6.8711480710969170e+01 4.7447832920747715e+01 0 0 0
1433 144 6 0.0000000000000000e+00 -2.3518211345973069e+02 -6.6540730908476391e+01 4.7516566369768690e+01 0 0 0
1431 144 4 0.0000000000000000e+00 -2.5320897133480290e+02 -6.9858548774831888e+01 5.4743107483935823e+01 0 0 0
1432 144 6 0.0000000000000000e+00 -2.4399409451967603e+02 -6.9471176316850205e+01 5.1240188441667392e+01 0 0 0
1434 144 5 0.0000000000000000e+00 -2.2874839976714645e+02 -5.9050568310608178e+01 4.4418927424081929e+01 0 0 0
3413 332 7 0.0000000000000000e+00 -2.3628573737459709e+02 -5.7874874457925166e+01 5.2100002014462873e+01 0 0 0
1965 197 6 0.0000000000000000e+00 -2.0881098770707177e+02 -7.4160478910830946e+01 4.4410438576255800e+01 0 0 0
825 83 6 0.0000000000000000e+00 -1.7781931863187722e+02 -6.8098398061358935e+01 4.5811384865495988e+01 0 0 0
1966 197 6 0.0000000000000000e+00 -2.0822541581459467e+02 -6.6152055698590189e+01 4.9625718198404492e+01 0 0 0
2246 225 6 0.0000000000000000e+00 -1.8579469384826112e+02 -6.5659514738241867e+01 5.1234620254096974e+01 0 0 0
2245 225 6 0.0000000000000000e+00 -1.8403345090822754e+02 -6.2512591748843604e+01 6.0287453913798522e+01 0 0 0
2428 243 6 0.0000000000000000e+00 -1.7514188567808125e+02 -6.1434650704682241e+01 7.4360672267806564e+01 0 0 0
2429 243 6 0.0000000000000000e+00 -1.8187722088911110e+02 -6.8388465717314233e+01 7.1330315839370343e+01 0 0 0
2430 243 5 0.0000000000000000e+00 -1.7698873534206868e+02 -7.0542127459659540e+01 6.3293493708199549e+01 0 0 0
1967 197 5 0.0000000000000000e+00 -2.0768299910996996e+02 -5.7888119943400625e+01 5.5604970278779533e+01 0 0 0
2427 243 5 0.0000000000000000e+00 -1.7410851084906361e+02 -6.9540608785037776e+01 7.9868937001927179e+01 0 0 0
2247 225 5 0.0000000000000000e+00 -1.8935664286045699e+02 -5.6356786426903355e+01 4.9938705278674938e+01 0 0 0
826 83 6 0.0000000000000000e+00 -1.7007352292541364e+02 -7.1462518810720894e+01 5.0797817210433706e+01 0 0 0
5025 417 7 0.0000000000000000e+00 -1.8315072303969555e+02 -6.2980425456204557e+01 8.2656482067462917e+01 0 0 0
4787 404 7 0.0000000000000000e+00 -1.4734783551492160e+02 -9.0003833742275660e+01 4.4580456272455613e+01 0 0 0
1895 190 6 0.0000000000000000e+00 -1.3642800763026827e+02 -7.6316125741844999e+01 4.4160772840245343e+01 0 0 0
4789 404 8 0.0000000000000000e+00 -1.4236630611964929e+02 -9.0214845306651682e+01 5.4686350224292326e+01 0 0 0
827 83 5 0.0000000000000000e+00 -1.6205880844311773e+02 -7.7552375203558512e+01 4.7547226994808732e+01 0 0 0
2531 254 4 0.0000000000000000e+00 -1.3372613618220657e+02 -8.1915199010657631e+01 5.0979514810320438e+01 0 0 0
830 83 5 0.0000000000000000e+00 -1.5239457190195034e+02 -8.0399070492668685e+01 6.2499167443297722e+01 0 0 0
829 83 6 0.0000000000000000e+00 -1.5291258754125053e+02 -8.6112445807101835e+01 5.4387979271573947e+01 0 0 0
828 83 6 0.0000000000000000e+00 -1.5152204237109103e+02 -7.9049888358592924e+01 4.7834796675622208e+01 0 0 0
4794 404 8 0.0000000000000000e+00 -1.5149094762138276e+02 -7.1272526820587487e+01 6.0403637030814771e+01 0 0 0
4792 404 8 0.0000000000000000e+00 -1.4063221863247057e+02 -6.4612301114501975e+01 6.6873115044222686e+01 0 0 0
4793 404 7 0.0000000000000000e+00 -1.5043927231576521e+02 -6.6226970165870227e+01 6.8490781089133790e+01 0 0 0
4791 404 8 0.0000000000000000e+00 -1.4040632913201421e+02 -7.4110139564770549e+01 6.3963757693718364e+01 0 0 0
1896 190 6 0.0000000000000000e+00 -1.3848914077443155e+02 -6.8039355260026241e+01 5.0134679777306928e+01 0 0 0
4790 404 7 0.0000000000000000e+00 -1.4314899636260938e+02 -8.0519442302996140e+01 5.5848887872349685e+01 0 0 0
2424 243 5 0.0000000000000000e+00 -1.4762113719589979e+02 -7.6607900787623691e+01 7.2101826003900797e+01 0 0 0
4795 404 8 0.0000000000000000e+00 -1.6095697520037916e+02 -6.9946013390096780e+01 5.7719812890748130e+01 0 0 0
2425 243 6 0.0000000000000000e+00 -1.5645474402118691e+02 -7.5568918776007649e+01 7.5091661605433941e+01 0 0 0
2423 243 6 0.0000000000000000e+00 -1.3728051757955095e+02 -7.7294780792065495e+01 7.3506029732308519e+01 0 0 0
2421 243 4 0.0000000000000000e+00 -1.3225735797040417e+02 -8.8841082334962323e+01 6.0131906934313925e+01 0 0 0
2422 243 6 0.0000000000000000e+00 -1.3363230071546172e+02 -8.5433884384167968e+01 6.8786243720616113e+01 0 0 0
4796 404 9 0.0000000000000000e+00 -1.6877178213170262e+02 -6.4816537778992767e+01 5.9184102618637311e+01 0 0 0
1897 190 5 0.0000000000000000e+00 -1.4151300167519017e+02 -5.8390192535686978e+01 5.1007312545638861e+01 0 0 0
2426 243 6 0.0000000000000000e+00 -1.6608034777261003e+02 -7.3035067951474730e+01 7.6190773447267290e+01 0 0 0
1898 190 6 0.0000000000000000e+00 -1.5117003327040180e+02 -6.1930287359895310e+01 4.9961857907634645e+01 0 0 0
250 25 3 0.0000000000000000e+00 -1.2698463355464830e+02 -9.5175000756139482e+01 5.2001814470727304e+01 0 0 0
1899 190 6 0.0000000000000000e+00 -1.5979042995684287e+02 -5.8365017317159797e+01 5.0891249305359835e+01 0 0 0