LAMMPS data file via write_data, version 5 Jun 2019, timestep = 350000000

5660 atoms
11 atom types
5947 bonds
7 bond types
4660 angles
4 angle types

-3.0000000000000000e+02 3.0000000000000000e+02 xlo xhi
-3.0000000000000000e+02 3.0000000000000000e+02 ylo yhi
0.0000000000000000e+00 3.0000000000000000e+02 zlo zhi

Masses

1 1000
2 450
3 450
4 11000
5 7000
6 450
7 450
8 450
9 450
10 450
11 20000

Pair Coeffs # lj/cut

1 0.24 10
2 0.24 10
3 0.24 10
4 0.24 10
5 0.24 10
6 0.24 10
7 0.24 10
8 0.24 10
9 0.24 10
10 0.24 10
11 0.24 30

Angle Coeffs # cosine

1 1
2 1
3 1
4 1

Atoms # full

2090 209 5 0.0000000000000000e+00 -2.7694172997976813e+02 -1.3199121161218773e+02 3.2206092572260381e+01 0 0 0
2089 209 6 0.0000000000000000e+00 -2.8718017141537968e+02 -1.3197383805786313e+02 3.2906706928192492e+01 0 0 0
2083 209 6 0.0000000000000000e+00 -2.9215798827362443e+02 -1.3997626391735935e+02 3.6372948210384124e+01 0 0 0
2088 209 6 0.0000000000000000e+00 -2.8678817543084011e+02 -1.3351348734619791e+02 2.3104686613058099e+01 0 0 0
2082 209 6 0.0000000000000000e+00 -2.8333402901123003e+02 -1.3961491448883348e+02 4.1666642193195898e+01 0 0 0
2087 209 5 0.0000000000000000e+00 -2.9573960988738605e+02 -1.3310318717174090e+02 1.9360066720949927e+01 0 0 0
2081 209 4 0.0000000000000000e+00 -2.7477551063786842e+02 -1.3456889440527277e+02 4.1764515554510773e+01 0 0 0
2247 225 5 0.0000000000000000e+00 -2.3539476234817479e+02 -1.1452040822690924e+02 3.2390359827856734e+01 0 0 0
2248 225 6 0.0000000000000000e+00 -2.4215888657629358e+02 -1.1403549609483787e+02 2.4984371419494138e+01 0 0 0
2249 225 6 0.0000000000000000e+00 -2.3583077696093315e+02 -1.1055714547422936e+02 1.8335445550001989e+01 0 0 0
2250 225 5 0.0000000000000000e+00 -2.2956271950844757e+02 -1.1147274608625241e+02 9.9882529919053109e+00 0 0 0
2246 225 6 0.0000000000000000e+00 -2.2740604573100745e+02 -1.1081376345767048e+02 2.8997251504631283e+01 0 0 0
5329 433 7 0.0000000000000000e+00 -2.2729677032654212e+02 -1.1966548076257136e+02 1.7971080464614932e+01 0 0 0
5330 433 8 0.0000000000000000e+00 -2.2222873355463068e+02 -1.1093901053495554e+02 1.9579695507115037e+01 0 0 0
1961 197 4 0.0000000000000000e+00 -2.2516651627356742e+02 -1.1179291021779110e+02 4.1975114649894707e+01 0 0 0
1966 197 6 0.0000000000000000e+00 -1.9845977600143422e+02 -1.0693681684085007e+02 2.6749355854053864e+01 0 0 0
16 2 2 0.0000000000000000e+00 -1.6353962830564248e+02 -1.0836052352152396e+02 4.1204366699275006e+01 0 0 0
978 98 6 0.0000000000000000e+00 -2.9310836528791810e+02 -7.3382160958464723e+01 1.9446031268279221e+01 0 0 0
979 98 6 0.0000000000000000e+00 -2.9745139739529031e+02 -7.6702232340445363e+01 2.7742489446782312e+01 0 0 0
4069 366 8 0.0000000000000000e+00 -2.9413026756200475e+02 -6.8489709193016495e+01 1.0552433459562678e+01 0 0 0
4339 380 8 0.0000000000000000e+00 -2.9378843151506794e+02 -7.5151935464373693e+01 4.2368648860780709e+01 1 0 0
5640 494 10 0.0000000000000000e+00 -2.9964724204334942e+02 -8.2469264601261344e+01 3.6996678523389541e+01 0 1 0
752 76 2 0.0000000000000000e+00 -2.4321798326791310e+02 -1.0251235704972922e+02 1.6944401635294440e+01 0 0 0
754 76 3 0.0000000000000000e+00 -2.3216381288863249e+02 -1.0131801414943740e+02 2.2485319261483401e+01 0 0 0
753 76 2 0.0000000000000000e+00 -2.4091732589224461e+02 -1.0365414681473818e+02 2.6478334244023067e+01 0 0 0
2245 225 6 0.0000000000000000e+00 -2.2167792928830681e+02 -1.0340569465033978e+02 3.2789179564092088e+01 0 0 0
760 76 3 0.0000000000000000e+00 -2.2567437163084290e+02 -1.0038169239911419e+02 4.2449199593371063e+01 0 0 0
759 76 2 0.0000000000000000e+00 -2.2998179351858113e+02 -9.4578529797160357e+01 3.5982861008324853e+01 0 0 0
751 76 1 0.0000000000000000e+00 -2.4371264559026662e+02 -1.0134567808206847e+02 6.8810700000000002e+00 0 0 0
755 76 2 0.0000000000000000e+00 -2.2561048144849875e+02 -9.7461115879021378e+01 1.5860238119093660e+01 0 0 0
756 76 2 0.0000000000000000e+00 -2.3331808522056585e+02 -9.2591857380563908e+01 1.3012686901715570e+01 0 0 0
757 76 3 0.0000000000000000e+00 -2.4013849444539701e+02 -9.1860820451409197e+01 2.0228751300077828e+01 0 0 0
5345 433 8 0.0000000000000000e+00 -2.2319153236076792e+02 -6.8797901497976696e+01 7.5146488542982341e+00 0 0 0
758 76 2 0.0000000000000000e+00 -2.3550923975925710e+02 -9.0029403439773986e+01 2.8863722029732809e+01 0 0 0
5344 433 7 0.0000000000000000e+00 -2.2223619736451479e+02 -7.8453633522414435e+01 1.1839630075368946e+01 0 0 0
571 58 1 0.0000000000000000e+00 -2.4490875722434626e+02 -7.7127334227916478e+01 5.0072700000000001e+00 0 0 0
950 95 5 0.0000000000000000e+00 -2.5076401020308830e+02 -7.5732812662029744e+01 3.4409081190766656e+01 0 0 0
2242 225 6 0.0000000000000000e+00 -2.2796422330157947e+02 -8.4565008463373502e+01 4.1252701244541981e+01 0 0 0
1970 197 5 0.0000000000000000e+00 -2.1951118479903198e+02 -8.8393689028383946e+01 6.1015653781036852e+00 0 0 0
2243 225 6 0.0000000000000000e+00 -2.1978143333349547e+02 -8.8305119460374755e+01 3.6192803282669146e+01 0 0 0
572 58 2 0.0000000000000000e+00 -2.4063963455145364e+02 -6.8740497915358063e+01 8.5325185740426246e+00 0 0 0
576 58 2 0.0000000000000000e+00 -2.2577976417729258e+02 -6.9741605914281791e+01 3.4245732596637815e+01 0 0 0
577 58 3 0.0000000000000000e+00 -2.1984527536417474e+02 -6.9122055952235726e+01 4.2436752466853910e+01 0 0 0
5336 433 8 0.0000000000000000e+00 -2.1731618201626068e+02 -7.3967001199304519e+01 2.3071635694725281e+01 0 0 0
5331 433 8 0.0000000000000000e+00 -2.1635925226213351e+02 -1.0485433115294744e+02 2.4660839608767176e+01 0 0 0
5343 433 8 0.0000000000000000e+00 -2.1327399461306510e+02 -8.1901378660186140e+01 1.3564609557957606e+01 0 0 0
5335 433 7 0.0000000000000000e+00 -2.1678841762828603e+02 -8.2082494812347846e+01 2.8524639886680738e+01 0 0 0
5332 433 7 0.0000000000000000e+00 -2.1090395292185298e+02 -9.8301823819170011e+01 1.9929138061926217e+01 0 0 0
1965 197 6 0.0000000000000000e+00 -2.0334271537619205e+02 -1.0114443083757355e+02 3.2643167574882668e+01 0 0 0
1968 197 6 0.0000000000000000e+00 -2.0339886746842225e+02 -9.7646776151392231e+01 1.0660973075619145e+01 0 0 0
1967 197 5 0.0000000000000000e+00 -2.0066048343004900e+02 -1.0436972059603757e+02 1.7152103294580410e+01 0 0 0
5342 433 8 0.0000000000000000e+00 -2.0417371976410368e+02 -8.1782335772758287e+01 1.6021101263771772e+01 0 0 0
5333 433 8 0.0000000000000000e+00 -2.0282476726238443e+02 -9.3048738050270600e+01 2.0673518524755906e+01 0 0 0
2244 225 5 0.0000000000000000e+00 -2.1451511941533937e+02 -9.6407002298862992e+01 3.3838109503786136e+01 0 0 0
1969 197 6 0.0000000000000000e+00 -2.1227642219034161e+02 -9.4497172123194915e+01 7.9505139784743353e+00 0 0 0
1081 109 4 0.0000000000000000e+00 -1.8157835596582962e+02 -9.5158390368334750e+01 3.3713059555200360e+01 0 0 0
5341 433 7 0.0000000000000000e+00 -1.9565205539197237e+02 -7.9428228766378552e+01 1.2109924935835286e+01 0 0 0
5340 433 8 0.0000000000000000e+00 -1.9077144321391015e+02 -7.0571536703401875e+01 1.1387880685937009e+01 0 0 0
5334 433 8 0.0000000000000000e+00 -2.0885751361610428e+02 -8.7524468598223578e+01 2.6036822241085300e+01 0 0 0
297 30 3 0.0000000000000000e+00 -1.9268955692414900e+02 -9.1760268742729906e+01 3.5601903312770233e+01 0 0 0
2429 243 6 0.0000000000000000e+00 -2.0538507280765427e+02 -7.5799945599926531e+01 2.8385669269488925e+01 0 0 0
298 30 2 0.0000000000000000e+00 -1.9915208655243541e+02 -8.5829664530489651e+01 3.0649038112666879e+01 0 0 0
296 30 2 0.0000000000000000e+00 -1.9122094634960550e+02 -9.0520826457830879e+01 2.5800966170728216e+01 0 0 0
2430 243 5 0.0000000000000000e+00 -2.1238528386029060e+02 -7.4699495594182551e+01 3.5376352350689189e+01 0 0 0
1964 197 5 0.0000000000000000e+00 -2.0443991331863137e+02 -9.7942287554909299e+01 4.1532504101353126e+01 0 0 0
295 30 2 0.0000000000000000e+00 -1.8600642153165785e+02 -8.2590759342429493e+01 2.3325781804302096e+01 0 0 0
299 30 2 0.0000000000000000e+00 -2.0662499919387548e+02 -8.7856236558096086e+01 3.6215332703868505e+01 0 0 0
821 83 4 0.0000000000000000e+00 -1.8561782149005816e+02 -6.9339324492571421e+01 2.9969833597859992e+01 0 0 0
1082 109 6 0.0000000000000000e+00 -1.8062332815040313e+02 -9.2636832680512242e+01 2.4027814922841472e+01 0 0 0
2428 243 6 0.0000000000000000e+00 -1.9718893189833256e+02 -7.1730975888420431e+01 2.4669801231915478e+01 0 0 0
5337 433 8 0.0000000000000000e+00 -2.1593381123334103e+02 -6.8740296238513920e+01 1.4582143669618564e+01 0 0 0
33 4 2 0.0000000000000000e+00 -1.7858387864053540e+02 -6.7351231467701027e+01 6.4282492426417805e+00 0 0 0
5339 433 8 0.0000000000000000e+00 -1.9829285845320081e+02 -7.0337260493688703e+01 5.5220557913364958e+00 0 0 0
294 30 3 0.0000000000000000e+00 -1.7873429753725756e+02 -7.6242530734308019e+01 2.4207092841766169e+01 0 0 0
822 83 6 0.0000000000000000e+00 -1.8647752219541678e+02 -6.7391578727498725e+01 2.0259266681106780e+01 0 0 0
825 83 6 0.0000000000000000e+00 -1.8859153990221174e+02 -6.7980167536082334e+01 4.0604291041030400e+01 0 0 0
3393 331 8 0.0000000000000000e+00 -1.7024389974657865e+02 -7.3144626328811199e+01 3.4894463988110118e+01 0 0 0
1717 172 5 0.0000000000000000e+00 -1.3551535006041652e+02 -7.1564413040124350e+01 3.4341635014399678e+01 0 0 0
2212 222 6 0.0000000000000000e+00 -1.4590847667881667e+02 -1.0343278818370170e+02 3.6292612625432568e+01 0 0 0
2211 222 4 0.0000000000000000e+00 -1.4272274383703200e+02 -1.0530385754230731e+02 2.6699014320698012e+01 0 0 0
14 2 3 0.0000000000000000e+00 -1.5297339794854764e+02 -1.0075049684989948e+02 2.6964310507186887e+01 0 0 0
15 2 2 0.0000000000000000e+00 -1.5985140691341283e+02 -1.0251376901749165e+02 3.3967180470470808e+01 0 0 0
13 2 2 0.0000000000000000e+00 -1.4646329267743246e+02 -9.6161995576959043e+01 2.0598148222560901e+01 0 0 0
12 2 2 0.0000000000000000e+00 -1.3861998862188781e+02 -9.9866708613275904e+01 1.5711170832318443e+01 0 0 0
292 30 2 0.0000000000000000e+00 -1.6379828694361004e+02 -7.3246111004615187e+01 1.2599917456411761e+01 0 0 0
291 30 1 0.0000000000000000e+00 -1.6728268584769819e+02 -7.8835167203064017e+01 5.0072700000000001e+00 0 0 0
1083 109 6 0.0000000000000000e+00 -1.7258841095435164e+02 -8.8349961078024634e+01 1.9742845270400778e+01 0 0 0
5130 422 8 0.0000000000000000e+00 -1.6077040069606255e+02 -8.5839224266450614e+01 3.7163476194642755e+01 0 0 0
5129 422 7 0.0000000000000000e+00 -1.6419287690373642e+02 -8.3331198425770069e+01 2.8025818424093075e+01 0 0 0
1087 109 5 0.0000000000000000e+00 -1.4143344824290656e+02 -8.3137005702738719e+01 2.3135794434996050e+01 0 0 0
1085 109 6 0.0000000000000000e+00 -1.5465914796060346e+02 -8.9463379252835225e+01 1.2852211591488340e+01 0 0 0
1086 109 6 0.0000000000000000e+00 -1.4664939844763225e+02 -8.3675627824124945e+01 1.4125676347301210e+01 0 0 0
1084 109 5 0.0000000000000000e+00 -1.6297911873600660e+02 -8.5987244667529922e+01 1.7686537188969307e+01 0 0 0
5126 422 7 0.0000000000000000e+00 -1.4190146297509287e+02 -7.9823590831837095e+01 3.3568351536286542e+01 0 0 0
5128 422 8 0.0000000000000000e+00 -1.5742994939742766e+02 -9.0258242702035758e+01 2.8520589536231505e+01 0 0 0
5127 422 8 0.0000000000000000e+00 -1.4917980013313343e+02 -8.4336781494815114e+01 2.8925421260519730e+01 0 0 0
1090 109 5 0.0000000000000000e+00 -1.3894304944725499e+02 -9.6809753952625982e+01 3.8260267503176124e+01 0 0 0
5125 422 8 0.0000000000000000e+00 -1.4559768950089457e+02 -7.1040188200764803e+01 3.0811550106960770e+01 0 0 0
293 30 2 0.0000000000000000e+00 -1.7013832411786740e+02 -7.3598130174889221e+01 2.0733621560129489e+01 0 0 0
1716 172 6 0.0000000000000000e+00 -1.3644623997134923e+02 -6.9299725753979104e+01 2.5007016917248507e+01 0 0 0
40 4 3 0.0000000000000000e+00 -1.4448763672053133e+02 -7.1970352845303097e+01 1.2323875371861822e+01 0 0 0
1088 109 6 0.0000000000000000e+00 -1.3636711771621313e+02 -8.8218473018350139e+01 2.9434146290615718e+01 0 0 0
5131 422 8 0.0000000000000000e+00 -1.5351676597683809e+02 -9.1223516619225407e+01 4.2018004540574701e+01 0 0 0
976 98 6 0.0000000000000000e+00 -2.8980375496909153e+02 -6.5865491841403994e+01 3.6434547308223650e+01 0 0 0
4645 397 7 0.0000000000000000e+00 -2.7572813771601301e+02 -5.5273806764409557e+01 1.0222928776949496e+01 0 0 0
663 67 2 0.0000000000000000e+00 -2.8093434104978439e+02 -4.0724089793591347e+01 1.8288740598730381e+01 1 0 0
977 98 5 0.0000000000000000e+00 -2.9213213990493858e+02 -6.6597954404217006e+01 2.6721158918832398e+01 0 0 0
4646 397 8 0.0000000000000000e+00 -2.8063216493347369e+02 -5.7663591262312352e+01 1.8495225730649846e+01 0 0 0
4647 397 8 0.0000000000000000e+00 -2.8421157474505554e+02 -4.9512902075758156e+01 2.3475756599242711e+01 0 0 0
971 98 4 0.0000000000000000e+00 -2.7245524329080712e+02 -3.3745298099278635e+01 2.5533033574588583e+01 0 0 0
665 67 2 0.0000000000000000e+00 -2.7382084260084315e+02 -5.3709478806334509e+01 2.6901409310445672e+01 1 0 0
941 95 4 0.0000000000000000e+00 -2.6146512352190427e+02 -3.8526364866981126e+01 4.4677339139698518e+00 0 0 0
974 98 5 0.0000000000000000e+00 -2.8250091366549509e+02 -5.2566503137582743e+01 3.6331080937688697e+01 0 0 0
664 67 3 0.0000000000000000e+00 -2.7513543497361979e+02 -4.4472000281333429e+01 2.4959728118529977e+01 1 0 0
972 98 6 0.0000000000000000e+00 -2.7476994886779300e+02 -3.7073795164888715e+01 3.4269374457842353e+01 0 0 0
661 67 1 0.0000000000000000e+00 -2.7779823127954700e+02 -4.4488963455888360e+01 7.9355000000000002e+00 1 0 0
4648 397 7 0.0000000000000000e+00 -2.8639837412776853e+02 -4.2884918768922120e+01 3.0743768305598120e+01 0 0 0
4649 397 8 0.0000000000000000e+00 -2.9221273151645073e+02 -3.4261880700988272e+01 3.3038032231184594e+01 0 0 0
662 67 2 0.0000000000000000e+00 -2.8703159333421900e+02 -4.4418067954102547e+01 1.0889390249573484e+01 1 0 0
944 95 5 0.0000000000000000e+00 -2.6194379240033106e+02 -4.0326015942857602e+01 3.1458898413875481e+01 0 0 0
4067 366 8 0.0000000000000000e+00 -2.9432715301357285e+02 -5.0463025996967481e+01 1.8405345368958663e+01 0 0 0
666 67 2 0.0000000000000000e+00 -2.7050928901963272e+02 -4.9909209871363096e+01 1.7761751362828402e+01 1 0 0
667 67 3 0.0000000000000000e+00 -2.6227042866768414e+02 -4.6265457605533484e+01 1.3080194911834823e+01 1 0 0
945 95 6 0.0000000000000000e+00 -2.6444925722966786e+02 -4.3881811123195618e+01 4.0310857994204952e+01 0 0 0
973 98 6 0.0000000000000000e+00 -2.7447794532961234e+02 -4.7172650283932974e+01 3.5907167931798895e+01 0 0 0
4066 366 8 0.0000000000000000e+00 -2.9836799876788575e+02 -4.1579836800858388e+01 2.0375540728888819e+01 0 0 0
943 95 6 0.0000000000000000e+00 -2.5966136028252311e+02 -3.8839549035454326e+01 2.2334691451304892e+01 0 0 0
5559 467 10 0.0000000000000000e+00 -2.8944233760153901e+02 -3.1508737351386007e+01 2.1233126548921057e+01 0 0 0
4068 366 7 0.0000000000000000e+00 -2.9076794095226535e+02 -6.0272494412973799e+01 1.6719857289123361e+01 0 0 0
942 95 6 0.0000000000000000e+00 -2.6168114503452711e+02 -3.5189957876984103e+01 1.3402924634700044e+01 0 0 0
975 98 6 0.0000000000000000e+00 -2.8905633968261691e+02 -5.7780298612720102e+01 4.1812662105132638e+01 0 0 0
3929 359 7 0.0000000000000000e+00 -2.5377529845016630e+02 -6.5432386048299904e+01 3.8366949576561815e+01 0 0 0
5346 433 8 0.0000000000000000e+00 -2.2452970843503348e+02 -5.9418875380133549e+01 8.2532279918453870e+00 0 0 0
575 58 2 0.0000000000000000e+00 -2.3376573050164697e+02 -6.3782807235715822e+01 2.9886384003697756e+01 0 0 0
3930 359 8 0.0000000000000000e+00 -2.4422514587722637e+02 -6.4730525194901929e+01 3.3973931605209508e+01 0 0 0
668 67 2 0.0000000000000000e+00 -2.5260479854053048e+02 -4.4238200491749161e+01 1.6030639058715575e+01 1 0 0
573 58 2 0.0000000000000000e+00 -2.3902924115760695e+02 -6.1816689700814621e+01 1.5926329976879787e+01 0 0 0
669 67 2 0.0000000000000000e+00 -2.5042375392921687e+02 -4.5579027265095093e+01 2.5807843727712612e+01 1 0 0
574 58 3 0.0000000000000000e+00 -2.3905319561936975e+02 -5.7335227391804871e+01 2.5144817664396481e+01 0 0 0
2761 277 4 0.0000000000000000e+00 -2.3236121620845270e+02 -5.1943169087447323e+01 3.2202610415367559e+01 0 0 0
670 67 3 0.0000000000000000e+00 -2.4753643095442345e+02 -5.4004606351132949e+01 3.0970523623249289e+01 1 0 0
931 94 4 0.0000000000000000e+00 -2.4374084981936105e+02 -4.4298441026851698e+01 3.2985508963500102e+01 1 0 0
5638 493 11 0.0000000000000000e+00 -2.3274872084169070e+02 -4.8366253124395719e+01 1.6268837173683899e+01 0 0 0
5639 493 10 0.0000000000000000e+00 -2.2260144953797200e+02 -4.7321165027391402e+01 1.8048134097038126e+01 0 0 0
5637 493 10 0.0000000000000000e+00 -2.3778634520841081e+02 -4.4771562795559504e+01 2.4424094060306754e+01 0 0 0
932 94 6 0.0000000000000000e+00 -2.5059164235914994e+02 -3.6987798802981864e+01 3.3410038415723783e+01 1 0 0
2762 277 6 0.0000000000000000e+00 -2.3429193129207687e+02 -5.5866077545661092e+01 4.0786555802077181e+01 0 0 0
4359 381 9 0.0000000000000000e+00 -2.4079373433857958e+02 -3.6143763937116262e+01 1.7797686100599009e+01 0 0 0
4358 381 8 0.0000000000000000e+00 -2.3952146013091286e+02 -3.8405646642807319e+01 8.0688671939599157e+00 0 0 0
3936 359 8 0.0000000000000000e+00 -2.2723053054518721e+02 -3.7730057035036836e+01 4.0972021869235178e+01 0 0 0
4357 381 8 0.0000000000000000e+00 -2.3222322527990664e+02 -3.2337428081958578e+01 1.0763078410620189e+01 0 0 0
933 94 6 0.0000000000000000e+00 -2.5701211902598448e+02 -3.0286442562001945e+01 3.2912544972119619e+01 1 0 0
5347 433 9 0.0000000000000000e+00 -2.1892818214144881e+02 -5.8107851458280471e+01 1.6017379465466583e+01 0 0 0
3931 359 8 0.0000000000000000e+00 -2.4533431804169305e+02 -5.7641905920629533e+01 4.1493502815853894e+01 0 0 0
4612 395 8 0.0000000000000000e+00 -2.1003090280590851e+02 -4.2751446501314149e+01 3.4553655968759116e+01 0 0 0
5338 433 7 0.0000000000000000e+00 -2.0643941357387135e+02 -6.6570055146167576e+01 1.0173742838935212e+01 0 0 0
31 4 1 0.0000000000000000e+00 -1.9085795717148210e+02 -5.8058658323929528e+01 4.7217000000000002e+00 0 0 0
32 4 2 0.0000000000000000e+00 -1.8661858457655765e+02 -6.5398830679304339e+01 6.6732350662644402e-01 0 0 0
823 83 6 0.0000000000000000e+00 -1.9122050578268559e+02 -6.1039120513514177e+01 2.6350817636439299e+01 0 0 0
2424 243 5 0.0000000000000000e+00 -2.0073973530677526e+02 -4.2609796418236790e+01 2.0305230360658069e+01 0 0 0
2423 243 6 0.0000000000000000e+00 -1.9089375867156727e+02 -4.0733629660801114e+01 1.9886563200254653e+01 0 0 0
2421 243 4 0.0000000000000000e+00 -1.8577944315017999e+02 -5.6516244291842078e+01 1.6521958548311510e+01 0 0 0
2422 243 6 0.0000000000000000e+00 -1.8469502753260755e+02 -4.6677728542047149e+01 1.4906494071261539e+01 0 0 0
2427 243 5 0.0000000000000000e+00 -1.9875393358649922e+02 -6.4765618774957716e+01 1.7881547394444617e+01 0 0 0
2426 243 6 0.0000000000000000e+00 -2.0372560967980147e+02 -5.5795773672174867e+01 1.9759295401060704e+01 0 0 0
2425 243 6 0.0000000000000000e+00 -2.0902696818096643e+02 -4.8157107356906636e+01 1.8555170347074728e+01 0 0 0
3606 342 7 0.0000000000000000e+00 -1.8131898365383540e+02 -4.1339546249883561e+01 2.7926486635795680e+01 0 0 0
824 83 5 0.0000000000000000e+00 -1.9041874563419489e+02 -5.9773011906843749e+01 3.6070680138360714e+01 0 0 0
3391 331 7 0.0000000000000000e+00 -1.8028160541577788e+02 -5.7322196295838964e+01 3.9182298522925294e+01 0 0 0
3605 342 8 0.0000000000000000e+00 -1.8338589405938811e+02 -4.4003637115835865e+01 3.7240369414904080e+01 0 0 0
4613 395 7 0.0000000000000000e+00 -2.1039256903390441e+02 -3.8249233902648683e+01 2.5332028656775481e+01 0 0 0
1360 136 5 0.0000000000000000e+00 -1.8314426158479918e+02 -3.1821143181034945e+01 3.4394027651113348e+01 0 0 0
34 4 3 0.0000000000000000e+00 -1.7626248590771928e+02 -6.1683189955451745e+01 1.3809862232060935e+01 0 0 0
3392 331 8 0.0000000000000000e+00 -1.7659267230565078e+02 -6.5479735781876599e+01 3.4699213155985163e+01 0 0 0
791 80 1 0.0000000000000000e+00 -1.7865401770861450e+02 -2.8714707014988832e+01 5.0286200000000001e+00 0 0 0
4611 395 8 0.0000000000000000e+00 -2.0800770843416515e+02 -3.3404495808799076e+01 3.6376900577853483e+01 0 0 0
4610 395 7 0.0000000000000000e+00 -2.0002001187910298e+02 -2.9336030398236641e+01 3.2064774032291425e+01 0 0 0
4614 395 8 0.0000000000000000e+00 -2.0827704775008129e+02 -2.8400486860755038e+01 2.2943722669570999e+01 0 0 0
319 32 2 0.0000000000000000e+00 -1.7836044338410807e+02 -2.8590226340675816e+01 4.2540207842441930e+01 0 0 0
2962 297 6 0.0000000000000000e+00 -1.3636255432117969e+02 -5.3313155740742360e+01 1.9080499738524093e+01 0 0 0
3607 342 8 0.0000000000000000e+00 -1.7580653278579734e+02 -3.9218370057914349e+01 2.0401607415857647e+01 0 0 0
1032 104 6 0.0000000000000000e+00 -1.5533413543292536e+02 -3.2521722663065376e+01 2.4640164034972301e+01 0 0 0
2909 291 6 0.0000000000000000e+00 -1.7498337805671756e+02 -3.7711278288847488e+01 3.5339370463116822e+01 0 0 0
5124 422 8 0.0000000000000000e+00 -1.4973262951591997e+02 -6.5723441303318438e+01 3.8149653225102476e+01 0 0 0
38 4 2 0.0000000000000000e+00 -1.4719729836475673e+02 -5.8164085559216424e+01 9.9439794290339414e+00 0 0 0
2910 291 5 0.0000000000000000e+00 -1.7355321283782968e+02 -4.4994881512528202e+01 4.0802356679076702e+01 0 0 0
5123 422 7 0.0000000000000000e+00 -1.4543118185965912e+02 -5.7175464639669102e+01 4.1104431830008075e+01 0 0 0
35 4 2 0.0000000000000000e+00 -1.6694274548396623e+02 -5.7392807503368267e+01 1.2521156954538093e+01 0 0 0
1713 172 6 0.0000000000000000e+00 -1.3887040470514361e+02 -4.5591910878544937e+01 3.3151551447707448e+01 0 0 0
37 4 3 0.0000000000000000e+00 -1.5372321891168482e+02 -5.0978643492371496e+01 1.0234485857536651e+01 0 0 0
36 4 2 0.0000000000000000e+00 -1.6341398163942895e+02 -4.8941573168174315e+01 9.2874790501476632e+00 0 0 0
2961 297 4 0.0000000000000000e+00 -1.4373320005144532e+02 -4.7836956808299071e+01 1.4342497086429347e+01 0 0 0
315 32 2 0.0000000000000000e+00 -1.5325048236600321e+02 -4.1948643609471532e+01 2.6710510234202559e+01 0 0 0
313 32 2 0.0000000000000000e+00 -1.4535299172468754e+02 -3.7329288496567436e+01 8.8788668652459286e+00 0 0 0
314 32 3 0.0000000000000000e+00 -1.4893960766007950e+02 -4.0220068646143801e+01 1.8344164714796886e+01 0 0 0
316 32 2 0.0000000000000000e+00 -1.6126814364132929e+02 -3.9372453342500400e+01 3.2243724855196682e+01 0 0 0
1712 172 6 0.0000000000000000e+00 -1.4594273689286896e+02 -4.5752054315983237e+01 4.0391904889209378e+01 0 0 0
39 4 2 0.0000000000000000e+00 -1.4247608965658489e+02 -6.3711302765751256e+01 1.6975698454155694e+01 0 0 0
1711 172 4 0.0000000000000000e+00 -1.5603799749162260e+02 -4.4226368806655785e+01 4.2068739886818292e+01 0 0 0
1621 163 4 0.0000000000000000e+00 -1.4512897053662502e+02 -3.1010595825124753e+01 2.3498484902116534e+01 0 0 0
792 80 2 0.0000000000000000e+00 -1.7009900833862048e+02 -3.1024512140429820e+01 9.0409425089476922e+00 0 0 0
1623 163 6 0.0000000000000000e+00 -1.4140626217516174e+02 -3.3237813676874346e+01 4.2733653243420150e+01 0 0 0
317 32 3 0.0000000000000000e+00 -1.6392795655455842e+02 -3.6495549891321559e+01 4.0904750473805571e+01 0 0 0
1622 163 6 0.0000000000000000e+00 -1.4146439174010649e+02 -3.1000815287656025e+01 3.2920302957342777e+01 0 0 0
2908 291 6 0.0000000000000000e+00 -1.7082639564831817e+02 -2.9590802331060818e+01 3.0836969196593000e+01 0 0 0
1714 172 5 0.0000000000000000e+00 -1.3555044609186402e+02 -5.3875262932246549e+01 3.6298686049292840e+01 0 0 0
793 80 2 0.0000000000000000e+00 -1.6054285541443093e+02 -2.9925019609432848e+01 9.9381828904605829e+00 0 0 0
3608 342 8 0.0000000000000000e+00 -1.7266423943046388e+02 -2.9679654478826780e+01 1.9365695705920015e+01 0 0 0
312 32 2 0.0000000000000000e+00 -1.3543015854816764e+02 -3.8146887628889360e+01 9.7901360322651474e+00 0 0 0
1962 197 6 0.0000000000000000e+00 -2.1858849629680924e+02 -1.0902081627967762e+02 4.8806589093657898e+01 0 0 0
5625 489 10 0.0000000000000000e+00 -2.0224917847353879e+02 -1.3043610636342720e+02 4.8186925394102936e+01 0 0 0
3409 331 9 0.0000000000000000e+00 -1.9107416933438410e+02 -1.3226571076876013e+02 6.2539521424408640e+01 0 0 0
3408 331 8 0.0000000000000000e+00 -1.8167628297860620e+02 -1.2959683995066342e+02 6.3514906853922511e+01 0 0 0
5627 489 10 0.0000000000000000e+00 -1.9903138044660358e+02 -1.3998997062908970e+02 6.2002981341182178e+01 0 0 0
5626 489 11 0.0000000000000000e+00 -2.0555325296505174e+02 -1.3606265446037295e+02 5.5463597280156534e+01 0 0 0
3407 331 8 0.0000000000000000e+00 -1.8341931719455116e+02 -1.2191965779646515e+02 5.7975692354903302e+01 0 0 0
3406 331 7 0.0000000000000000e+00 -1.8597081237717302e+02 -1.1283876250017906e+02 6.0007136237829137e+01 0 0 0
3404 331 8 0.0000000000000000e+00 -1.9024969669147328e+02 -1.0879235342335917e+02 6.7307270232508500e+01 0 0 0
5134 422 8 0.0000000000000000e+00 -1.3864915214893119e+02 -1.1012291028593778e+02 4.8959160861170389e+01 0 0 0
3043 305 6 0.0000000000000000e+00 -1.5351907956099217e+02 -1.3029921607939366e+02 6.2469528338602267e+01 0 0 0
2214 222 5 0.0000000000000000e+00 -1.5157939650309035e+02 -1.0667460369654960e+02 5.4095627509455618e+01 0 0 0
19 2 2 0.0000000000000000e+00 -1.7245151208397692e+02 -1.1848417077341908e+02 5.8775088946611532e+01 0 0 0
20 2 3 0.0000000000000000e+00 -1.6332053987672276e+02 -1.1602133278437394e+02 5.6931996500864130e+01 0 0 0
3041 305 4 0.0000000000000000e+00 -1.5269891851479778e+02 -1.1481331507395755e+02 6.0089202597195928e+01 0 0 0
3047 305 5 0.0000000000000000e+00 -1.4714795865361276e+02 -1.1437858764138109e+02 7.1173350126973986e+01 0 0 0
3044 305 5 0.0000000000000000e+00 -1.4745854760444715e+02 -1.3460147082276995e+02 7.0013540250956098e+01 0 0 0
3045 305 6 0.0000000000000000e+00 -1.5509760903615731e+02 -1.2964745988011754e+02 7.5055443513879055e+01 0 0 0
3046 305 6 0.0000000000000000e+00 -1.5321137183270903e+02 -1.1990805032378303e+02 7.5622185640948189e+01 0 0 0
3042 305 6 0.0000000000000000e+00 -1.5602178795815826e+02 -1.2292945999714379e+02 5.6529566426885850e+01 0 0 0
3400 331 7 0.0000000000000000e+00 -1.5855799402889187e+02 -1.1358081604881717e+02 6.9508980485359075e+01 0 0 0
18 2 2 0.0000000000000000e+00 -1.7283884429296904e+02 -1.1006379482744620e+02 5.4657511698652868e+01 0 0 0
3048 305 6 0.0000000000000000e+00 -1.3862854491827807e+02 -1.1668249291894539e+02 7.6966694225793205e+01 0 0 0
3401 331 8 0.0000000000000000e+00 -1.6768581221723946e+02 -1.1535786702481538e+02 7.3288800620602288e+01 0 0 0
3402 331 8 0.0000000000000000e+00 -1.7333243556365758e+02 -1.0675100221698258e+02 7.3307030094114964e+01 0 0 0
3923 359 7 0.0000000000000000e+00 -2.7161969336557047e+02 -1.0292123617476204e+02 4.6569437736249768e+01 0 0 0
3924 359 8 0.0000000000000000e+00 -2.7582991884988763e+02 -9.7900835674690612e+01 5.4507810403111272e+01 0 0 0
3925 359 8 0.0000000000000000e+00 -2.7117500199604677e+02 -8.9244588758226385e+01 5.3961123297113950e+01 0 0 0
3926 359 7 0.0000000000000000e+00 -2.6444719804519877e+02 -8.1001740286431129e+01 5.6816654345052868e+01 0 0 0
3927 359 8 0.0000000000000000e+00 -2.6566068947814159e+02 -7.2158454344042042e+01 5.0931741220414864e+01 0 0 0
4340 380 9 0.0000000000000000e+00 -2.9635364086170335e+02 -8.3942012548443074e+01 4.7339492498060359e+01 1 0 0
949 95 6 0.0000000000000000e+00 -2.4876896837591050e+02 -7.3743060088742766e+01 4.3808512059562425e+01 0 0 0
2241 225 4 0.0000000000000000e+00 -2.2189221604061456e+02 -7.9134029199391861e+01 4.7012022117659988e+01 0 0 0
3405 331 8 0.0000000000000000e+00 -1.9041109675267771e+02 -1.0434779556063418e+02 5.8147273531086192e+01 0 0 0
1963 197 6 0.0000000000000000e+00 -2.1325979680010067e+02 -1.0176917029084854e+02 4.4620479375325793e+01 0 0 0
300 30 3 0.0000000000000000e+00 -2.0417798335262495e+02 -8.6594699597637870e+01 4.5543739519990865e+01 0 0 0
1891 190 4 0.0000000000000000e+00 -2.1391415978790175e+02 -9.0749737638821017e+01 4.7317032657304679e+01 0 0 0
1972 198 6 0.0000000000000000e+00 -1.8281278668774144e+02 -9.5926290574616843e+01 5.8374375627577187e+01 0 0 0
1971 198 4 0.0000000000000000e+00 -1.8139312469810662e+02 -9.9926309364965306e+01 4.9635078902838394e+01 0 0 0
1893 190 6 0.0000000000000000e+00 -2.0934857209532842e+02 -7.2121977364498434e+01 5.3253559576065491e+01 0 0 0
1892 190 6 0.0000000000000000e+00 -2.1061531415596735e+02 -8.1990048973726118e+01 5.1542936264154868e+01 0 0 0
1894 190 5 0.0000000000000000e+00 -2.0032243644422383e+02 -7.0779333483153565e+01 4.8491750552560141e+01 0 0 0
1895 190 6 0.0000000000000000e+00 -1.9279195878598881e+02 -7.6871140030762291e+01 4.8761260783093427e+01 0 0 0
1897 190 5 0.0000000000000000e+00 -1.8146904892833874e+02 -7.6248117051404719e+01 6.2122344342224594e+01 0 0 0
1896 190 6 0.0000000000000000e+00 -1.8879159302093979e+02 -8.0988791486628585e+01 5.6739603650618307e+01 0 0 0
1974 198 5 0.0000000000000000e+00 -1.8621875930408851e+02 -9.5718527720459889e+01 7.0232258610538992e+01 0 0 0
1973 198 6 0.0000000000000000e+00 -1.8353560672594168e+02 -8.8186067340587343e+01 6.4492599547345662e+01 0 0 0
3403 331 7 0.0000000000000000e+00 -1.8119528635693743e+02 -1.0548596389850879e+02 6.6971548669279386e+01 0 0 0
826 83 6 0.0000000000000000e+00 -1.8158996859597954e+02 -7.2163573953508930e+01 4.6723769783850585e+01 0 0 0
1898 190 6 0.0000000000000000e+00 -1.8884284261819730e+02 -6.9955792205092351e+01 6.2509058696719521e+01 0 0 0
1975 198 6 0.0000000000000000e+00 -1.7866854588419594e+02 -9.0074886724865621e+01 7.4193745396768065e+01 0 0 0
3396 331 8 0.0000000000000000e+00 -1.7705330320157026e+02 -8.7504608705783852e+01 5.7404180719832240e+01 0 0 0
3394 331 7 0.0000000000000000e+00 -1.7135425863514280e+02 -7.8247515517157439e+01 4.2859446273152109e+01 0 0 0
1718 172 6 0.0000000000000000e+00 -1.4036827636320595e+02 -7.1410734403765673e+01 4.2925559184571483e+01 0 0 0
5120 422 7 0.0000000000000000e+00 -1.6476118026883702e+02 -6.9153992380013321e+01 4.4396078855440791e+01 0 0 0
1719 172 6 0.0000000000000000e+00 -1.3529761804302757e+02 -7.7621594969225242e+01 4.8650689679046430e+01 0 0 0
17 2 3 0.0000000000000000e+00 -1.7187108437858365e+02 -1.0496347504318305e+02 4.6447678713980942e+01 0 0 0