LAMMPS data file via write_data, version 5 Jun 2019, timestep = 370000000

5660 atoms
11 atom types
5933 bonds
7 bond types
4660 angles
4 angle types

-3.0000000000000000e+02 3.0000000000000000e+02 xlo xhi
-3.0000000000000000e+02 3.0000000000000000e+02 ylo yhi
0.0000000000000000e+00 3.0000000000000000e+02 zlo zhi

Masses

1 1000
2 450
3 450
4 11000
5 7000
6 450
7 450
8 450
9 450
10 450
11 20000

Pair Coeffs # lj/cut

1 0.24 10
2 0.24 10
3 0.24 10
4 0.24 10
5 0.24 10
6 0.24 10
7 0.24 10
8 0.24 10
9 0.24 10
10 0.24 10
11 0.24 30

Angle Coeffs # cosine

1 1
2 1
3 1
4 1

Atoms # full

3895 357 8 0.0000000000000000e+00 -2.5653617633592296e+02 -1.8914315955560954e+02 2.3442710466469364e+01 1 0 0
3894 357 7 0.0000000000000000e+00 -2.6253392536366596e+02 -1.8270998528358999e+02 2.6695942958415852e+01 1 0 0
3893 357 8 0.0000000000000000e+00 -2.6856361226334400e+02 -1.8041273489664800e+02 3.4985677055885446e+01 1 0 0
3896 357 8 0.0000000000000000e+00 -2.5584505978325819e+02 -1.9082928376596129e+02 3.3518599106757868e+01 1 0 0
3897 357 7 0.0000000000000000e+00 -2.5098656974290208e+02 -1.9599540357406511e+02 4.0383230019330604e+01 1 0 0
3892 357 8 0.0000000000000000e+00 -2.7290879175540050e+02 -1.7613563950110606e+02 4.2214228984882674e+01 1 0 0
20 2 3 0.0000000000000000e+00 -1.3353139925304515e+02 -1.4328262655632324e+02 3.2554429150141814e+01 0 0 0
3409 331 9 0.0000000000000000e+00 -1.8385858012126761e+02 -1.0846159050784765e+02 3.1571910575216307e+01 0 0 0
3408 331 8 0.0000000000000000e+00 -1.8168661299275925e+02 -1.0207695271397516e+02 3.9055970094578818e+01 0 0 0
3407 331 8 0.0000000000000000e+00 -1.7192136975386509e+02 -1.0186365843723345e+02 3.7637546647032373e+01 0 0 0
13 2 2 0.0000000000000000e+00 -1.7198796299878884e+02 -1.0410244671386866e+02 1.1726969081184164e+01 0 0 0
5138 422 9 0.0000000000000000e+00 -1.9896325997707936e+02 -9.9956897198422269e+01 4.2022419751640598e+01 0 0 0
14 2 3 0.0000000000000000e+00 -1.6732312978547640e+02 -1.0989020010289870e+02 1.7843191298303353e+01 0 0 0
19 2 2 0.0000000000000000e+00 -1.4026092764655763e+02 -1.3565418928681743e+02 3.0101052689604305e+01 0 0 0
18 2 2 0.0000000000000000e+00 -1.3930549599530241e+02 -1.2664290705600094e+02 2.7017556010973738e+01 0 0 0
16 2 2 0.0000000000000000e+00 -1.4781974097142873e+02 -1.1087419961826214e+02 2.0431637263316233e+01 0 0 0
17 2 3 0.0000000000000000e+00 -1.4306428216255094e+02 -1.1788267592208832e+02 2.5447540993178375e+01 0 0 0
994 100 5 0.0000000000000000e+00 -1.2927661273259085e+02 -1.1623906277776608e+02 2.4402765483083527e+01 0 0 0
1801 181 4 0.0000000000000000e+00 -1.4247920181816383e+02 -1.2251957402308186e+02 3.6864606052092071e+01 0 0 0
390 39 3 0.0000000000000000e+00 -1.5252387605907330e+02 -1.1817477863620789e+02 3.2492446562821144e+01 0 0 0
15 2 2 0.0000000000000000e+00 -1.5773796037013929e+02 -1.0912944314571078e+02 2.1447028607304873e+01 0 0 0
2581 259 4 0.0000000000000000e+00 -1.2448316448645949e+02 -1.0326075528286421e+02 3.2325582565744078e+01 0 0 0
389 39 2 0.0000000000000000e+00 -1.4977757548727590e+02 -1.0831604430421156e+02 3.0192611082794063e+01 0 0 0
388 39 2 0.0000000000000000e+00 -1.4144552989180221e+02 -1.0440200054157373e+02 2.5066923020589712e+01 0 0 0
1805 181 6 0.0000000000000000e+00 -1.5285174134832289e+02 -9.9914762103303190e+01 3.8856774834429864e+01 0 0 0
995 100 6 0.0000000000000000e+00 -1.3086042750681838e+02 -1.1960850747038918e+02 3.3979600203599965e+01 0 0 0
387 39 3 0.0000000000000000e+00 -1.3332220859518139e+02 -1.0804370183675262e+02 2.9482721133962446e+01 0 0 0
996 100 6 0.0000000000000000e+00 -1.3008096528630452e+02 -1.2471533154111098e+02 4.2511523268234164e+01 0 0 0
386 39 2 0.0000000000000000e+00 -1.2898118188085880e+02 -1.0286311016727267e+02 2.2254682940532049e+01 0 0 0
1806 181 6 0.0000000000000000e+00 -1.5679937846655511e+02 -9.9150180868777056e+01 2.9727359368719362e+01 0 0 0
993 100 6 0.0000000000000000e+00 -1.2405639239580199e+02 -1.1237726373820152e+02 1.6496163994704563e+01 0 0 0
661 67 1 0.0000000000000000e+00 -2.8437517498134667e+02 -9.3362620120408792e+01 7.9355000000000002e+00 1 0 0
665 67 2 0.0000000000000000e+00 -2.9170558751760490e+02 -7.3445219946335740e+01 1.7973456203556214e+01 1 0 0
950 95 5 0.0000000000000000e+00 -2.6623249679533865e+02 -9.1253613225428296e+01 3.2244519769512856e+01 0 0 0
4324 380 8 0.0000000000000000e+00 -2.9396160889898948e+02 -6.3512654746576494e+01 3.4286395712192288e+01 1 0 0
945 95 6 0.0000000000000000e+00 -2.6287348700478196e+02 -6.0316778863547377e+01 2.3724320428226491e+01 0 0 0
947 95 5 0.0000000000000000e+00 -2.6267342013260577e+02 -7.0734566613428868e+01 3.5521181320399762e+01 0 0 0
944 95 5 0.0000000000000000e+00 -2.7201700643190924e+02 -6.1829899769638985e+01 2.0161192139003898e+01 0 0 0
949 95 6 0.0000000000000000e+00 -2.6091061251528947e+02 -8.2490864382993891e+01 3.4158131903451043e+01 0 0 0
946 95 6 0.0000000000000000e+00 -2.5902496471826697e+02 -6.8918729401614186e+01 2.6622939491795599e+01 0 0 0
666 67 2 0.0000000000000000e+00 -2.8928017894358851e+02 -6.3664546167737768e+01 1.6255445033735793e+01 1 0 0
4323 380 8 0.0000000000000000e+00 -2.8548679814050382e+02 -5.8389423797206454e+01 3.5893730524976320e+01 1 0 0
662 67 2 0.0000000000000000e+00 -2.8975126828762035e+02 -9.0211861886782842e+01 1.5744427927749792e+01 1 0 0
664 67 3 0.0000000000000000e+00 -2.9432112266658248e+02 -8.0641853621584431e+01 2.4404982850399197e+01 1 0 0
4322 380 7 0.0000000000000000e+00 -2.7957349171258187e+02 -6.2669768451633310e+01 2.8158333286887583e+01 1 0 0
663 67 2 0.0000000000000000e+00 -2.9120442915149465e+02 -9.0214349097598927e+01 2.5601956386663645e+01 1 0 0
948 95 6 0.0000000000000000e+00 -2.5717995065612217e+02 -7.5974265479516205e+01 4.1681468218369560e+01 0 0 0
4325 380 7 0.0000000000000000e+00 -2.8741098054209726e+02 -7.0273565044195010e+01 3.5955228961014100e+01 1 0 0
4327 380 8 0.0000000000000000e+00 -2.7621096883404419e+02 -6.4128046756489965e+01 4.2298923983821268e+01 1 0 0
5625 489 10 0.0000000000000000e+00 -1.8648184874362028e+02 -9.7532126681701001e+01 3.1272379400324589e+01 0 0 0
3404 331 8 0.0000000000000000e+00 -1.7573355159993292e+02 -8.1920334081504265e+01 2.9181019977476126e+01 0 0 0
5626 489 11 0.0000000000000000e+00 -1.7944405854025123e+02 -9.1561180472242611e+01 3.5978469614080808e+01 0 0 0
3402 331 8 0.0000000000000000e+00 -1.8902308419382578e+02 -7.6441752859979559e+01 3.2030631674214234e+01 0 0 0
3403 331 7 0.0000000000000000e+00 -1.7959003328658724e+02 -7.2987375173156423e+01 3.1670082600664866e+01 0 0 0
2245 225 6 0.0000000000000000e+00 -1.9673874095472169e+02 -6.8880040415644643e+01 2.9234277858710296e+01 0 0 0
2246 225 6 0.0000000000000000e+00 -1.9379039071878844e+02 -7.5868791974149630e+01 2.2808240922619852e+01 0 0 0
2247 225 5 0.0000000000000000e+00 -1.8806428845505849e+02 -6.8487804934471200e+01 1.9359735571799526e+01 0 0 0
2244 225 5 0.0000000000000000e+00 -1.9932245008395293e+02 -5.9445176714722670e+01 3.2650736291984359e+01 0 0 0
3405 331 8 0.0000000000000000e+00 -1.7175278623140142e+02 -9.0774156117655892e+01 2.8906891143976630e+01 0 0 0
4795 404 8 0.0000000000000000e+00 -1.7092626529352555e+02 -7.4827017578826258e+01 3.6305963491003986e+01 0 0 0
5136 422 8 0.0000000000000000e+00 -1.8956058976360251e+02 -8.5587570897298164e+01 3.8534581432389125e+01 0 0 0
5627 489 10 0.0000000000000000e+00 -1.7695927081643219e+02 -8.2943392279899442e+01 3.9617159820460351e+01 0 0 0
3401 331 8 0.0000000000000000e+00 -1.9528844145185329e+02 -7.4014748066080131e+01 4.0079250950380178e+01 0 0 0
12 2 2 0.0000000000000000e+00 -1.6796240969138717e+02 -9.5795969860349203e+01 8.7107529710351699e+00 0 0 0
2248 225 6 0.0000000000000000e+00 -1.8320902959799946e+02 -5.9792272549377934e+01 1.9228023988342937e+01 0 0 0
5137 422 8 0.0000000000000000e+00 -1.9823015074815356e+02 -9.0492567930284139e+01 3.9582976811318900e+01 0 0 0
3406 331 7 0.0000000000000000e+00 -1.6616073847732073e+02 -9.7991788126647350e+01 3.0887753152350300e+01 0 0 0
4794 404 8 0.0000000000000000e+00 -1.6638801496279575e+02 -8.3717545478792005e+01 3.6037633702161294e+01 0 0 0
1807 181 5 0.0000000000000000e+00 -1.6008934638359906e+02 -9.2715014468509594e+01 2.3348224265780427e+01 0 0 0
1810 181 5 0.0000000000000000e+00 -1.4665190438287166e+02 -7.5999317258335481e+01 2.2638364761868324e+01 0 0 0
1809 181 6 0.0000000000000000e+00 -1.4817526123812596e+02 -8.5350700825477475e+01 2.6942096056282363e+01 0 0 0
11 2 1 0.0000000000000000e+00 -1.5878624371300563e+02 -9.1946618466300194e+01 8.3056099999999997e+00 0 0 0
1808 181 6 0.0000000000000000e+00 -1.5066924831399953e+02 -9.1656517609352647e+01 2.0145610804539274e+01 0 0 0
1081 109 4 0.0000000000000000e+00 -1.2591075700141599e+02 -6.1152171876149758e+01 2.8264275035336063e+01 0 0 0
2211 222 4 0.0000000000000000e+00 -1.3272467138520830e+02 -6.5818854357664591e+01 4.0454674437487284e+01 0 0 0
2430 243 5 0.0000000000000000e+00 -1.5461587697396976e+02 -7.9657922585258049e+01 4.1110387794415097e+01 0 0 0
31 4 1 0.0000000000000000e+00 -1.3237839644021807e+02 -5.9418412228719511e+01 4.7217000000000002e+00 0 0 0
4791 404 8 0.0000000000000000e+00 -1.4970597118800612e+02 -8.9655924401335767e+01 3.8075546535883802e+01 0 0 0
4793 404 7 0.0000000000000000e+00 -1.6074475522799983e+02 -8.9117601453457993e+01 4.1922456583652732e+01 0 0 0
4792 404 8 0.0000000000000000e+00 -1.5705806659686166e+02 -8.5117899998799047e+01 3.2940300826739907e+01 0 0 0
385 39 2 0.0000000000000000e+00 -1.2673178484837553e+02 -9.3388279853433190e+01 2.1297391160512561e+01 0 0 0
2429 243 6 0.0000000000000000e+00 -1.5852846733119293e+02 -7.0593330973830220e+01 4.0325956511041426e+01 0 0 0
2212 222 6 0.0000000000000000e+00 -1.2854486018420695e+02 -7.3613970931296265e+01 3.5549204727036816e+01 0 0 0
2213 222 6 0.0000000000000000e+00 -1.2619196963183097e+02 -8.3649000450903515e+01 3.5982402295355783e+01 0 0 0
667 67 3 0.0000000000000000e+00 -2.8826190978440559e+02 -5.3958475612155731e+01 1.8474520899158755e+01 1 0 0
971 98 4 0.0000000000000000e+00 -2.9850816689141027e+02 -5.6103978322238433e+01 1.4620658831966804e+01 0 0 0
753 76 2 0.0000000000000000e+00 -2.8743484171473517e+02 -3.4860981594548726e+01 1.0266163193374847e+01 0 0 0
754 76 3 0.0000000000000000e+00 -2.8020562460541572e+02 -2.8937401666016143e+01 1.4377873478605130e+01 0 0 0
755 76 2 0.0000000000000000e+00 -2.7374336180299395e+02 -3.1118912125954186e+01 2.1868859578643630e+01 0 0 0
941 95 4 0.0000000000000000e+00 -2.7712116728644042e+02 -3.9634742699990412e+01 1.4850983086767910e+01 0 0 0
942 95 6 0.0000000000000000e+00 -2.7756375745859515e+02 -4.9120992715078920e+01 1.2243800406206301e+01 0 0 0
943 95 6 0.0000000000000000e+00 -2.7740006291349903e+02 -5.3596801001874177e+01 2.0777759802665631e+01 0 0 0
756 76 2 0.0000000000000000e+00 -2.6377004437028199e+02 -3.0729280034026111e+01 2.2336375511949306e+01 0 0 0
1965 197 6 0.0000000000000000e+00 -2.8139382484253127e+02 -3.2406328050261557e+01 2.9634425497385152e+01 0 0 0
752 76 2 0.0000000000000000e+00 -2.8863182916811650e+02 -4.4325227539224898e+01 9.5961842210618382e+00 0 0 0
1964 197 5 0.0000000000000000e+00 -2.7807098845782764e+02 -2.2868018906217799e+01 2.7254317806505242e+01 0 0 0
4330 380 8 0.0000000000000000e+00 -2.8319929337250767e+02 -4.7293882602891529e+01 3.1852529875549912e+01 1 0 0
2431 244 4 0.0000000000000000e+00 -2.6161083279283514e+02 -3.0522443107583392e+01 4.0846405995635138e+01 0 0 0
759 76 2 0.0000000000000000e+00 -2.6855040755769261e+02 -3.9243368619953287e+01 3.8746506855649542e+01 0 0 0
751 76 1 0.0000000000000000e+00 -2.9195790527920491e+02 -5.3523918465829986e+01 6.8810700000000002e+00 0 0 0
758 76 2 0.0000000000000000e+00 -2.6721996058875584e+02 -4.0287570358998018e+01 2.8664406249128991e+01 0 0 0
1961 197 4 0.0000000000000000e+00 -2.5810147275807833e+02 -2.3695268840702383e+01 3.2004147473650811e+01 0 0 0
668 67 2 0.0000000000000000e+00 -2.9464156656901281e+02 -4.6474043209401799e+01 2.0977305523773065e+01 1 0 0
4331 380 7 0.0000000000000000e+00 -2.9309628083866494e+02 -4.9755752354764439e+01 3.3601020397504755e+01 1 0 0
4328 380 7 0.0000000000000000e+00 -2.6943486870835699e+02 -5.6846564935352738e+01 4.1162742265409776e+01 1 0 0
4329 380 8 0.0000000000000000e+00 -2.7437470567443819e+02 -5.1166784092262475e+01 3.4382288104643017e+01 1 0 0
1966 197 6 0.0000000000000000e+00 -2.8100672350289875e+02 -2.9761981088815379e+01 3.9528265265386331e+01 0 0 0
757 76 3 0.0000000000000000e+00 -2.6003570001221323e+02 -3.4711886913932894e+01 3.0956349782820975e+01 0 0 0
3423 332 8 0.0000000000000000e+00 -2.8564023113002378e+02 -1.8783972721261676e+01 1.1151198538849000e+01 0 0 0
1962 197 6 0.0000000000000000e+00 -2.6430155925061985e+02 -1.9615908620107991e+01 2.5764603231906516e+01 0 0 0
4660 397 7 0.0000000000000000e+00 -2.8580846479777364e+02 -2.0088364957123602e+01 3.5855192748462549e+01 0 0 0
670 67 3 0.0000000000000000e+00 -2.9888682800963215e+02 -3.1546211223954526e+01 1.9348698831474852e+01 1 0 0
3414 332 8 0.0000000000000000e+00 -2.2502452348402474e+02 -2.7486770870344159e+01 1.4091968767806296e+01 0 0 0
1018 102 6 0.0000000000000000e+00 -2.4372703379914944e+02 -1.9655372131525201e+01 1.9841016826775842e+01 1 0 0
1016 102 6 0.0000000000000000e+00 -2.3584001578277878e+02 -3.5780758786527748e+01 1.9106086159025534e+01 1 0 0
1017 102 5 0.0000000000000000e+00 -2.4198054388996246e+02 -2.9062361168854682e+01 2.1880629436610882e+01 1 0 0
1014 102 5 0.0000000000000000e+00 -2.2141178572148564e+02 -3.1071558341442650e+01 2.3312333091578573e+01 1 0 0
1015 102 6 0.0000000000000000e+00 -2.2609098643234969e+02 -3.8203900296411483e+01 1.8526310791389673e+01 1 0 0
1013 102 6 0.0000000000000000e+00 -2.2239445462386627e+02 -2.3966743511411295e+01 2.9781803212281755e+01 1 0 0
3416 332 7 0.0000000000000000e+00 -2.3771063464713529e+02 -2.3205145765985979e+01 1.9928327930258851e+00 0 0 0
3415 332 8 0.0000000000000000e+00 -2.2859638206241874e+02 -2.6643481876327353e+01 4.9493718614263047e+00 0 0 0
2903 291 6 0.0000000000000000e+00 -2.3176724079354324e+02 -3.5727134253199537e+01 4.0426253825365521e+01 0 0 0
3413 332 7 0.0000000000000000e+00 -2.1507635165745174e+02 -2.9639217742386123e+01 1.5016475287573279e+01 0 0 0
1432 144 6 0.0000000000000000e+00 -2.5264883239680253e+02 -4.2072491285430324e+01 4.0424572995799437e+01 0 0 0
2902 291 6 0.0000000000000000e+00 -2.2587800452065099e+02 -4.3686961127023295e+01 4.0627332942815556e+01 0 0 0
1012 102 6 0.0000000000000000e+00 -2.1920818604946263e+02 -2.1128048220397904e+01 2.0591170662109931e+01 1 0 0
4379 383 7 0.0000000000000000e+00 -2.1795883384300328e+02 -3.5811749215647275e+01 3.9569095262779300e+01 0 0 0
3412 332 8 0.0000000000000000e+00 -2.1227065209936555e+02 -2.9994238058500500e+01 2.4773826341607364e+01 0 0 0
2242 225 6 0.0000000000000000e+00 -1.8396702953676814e+02 -5.6208946405887339e+01 3.5179267547612199e+01 0 0 0
2243 225 6 0.0000000000000000e+00 -1.9274509092053330e+02 -5.7635605918005751e+01 4.0020241580636480e+01 0 0 0
3411 332 8 0.0000000000000000e+00 -2.0964693305776225e+02 -2.2720715044198748e+01 3.0413982770255270e+01 0 0 0
573 58 2 0.0000000000000000e+00 -2.0528828686934219e+02 -3.2497891605320156e+01 1.7944785939602719e+00 0 0 0
574 58 3 0.0000000000000000e+00 -2.0316756707420015e+02 -3.9742472997284565e+01 8.4437650527167190e+00 0 0 0
572 58 2 0.0000000000000000e+00 -2.0593640031787621e+02 -2.2283479616618873e+01 2.7649913079204000e+00 0 0 0
575 58 2 0.0000000000000000e+00 -2.0015562515133516e+02 -4.9041297147333765e+01 5.9864989869151897e+00 0 0 0
3610 342 8 0.0000000000000000e+00 -2.0222614829477760e+02 -3.9590077012753049e+01 3.4480799261112757e+01 0 0 0
3609 342 7 0.0000000000000000e+00 -1.9914497790389933e+02 -4.9581652876746872e+01 3.7169247815740562e+01 0 0 0
2249 225 6 0.0000000000000000e+00 -1.8073404995544979e+02 -5.1503825397460652e+01 2.4232317522804838e+01 0 0 0
576 58 2 0.0000000000000000e+00 -1.9504145238815377e+02 -5.6235955592954788e+01 1.0841800707296311e+01 0 0 0
823 83 6 0.0000000000000000e+00 -1.9906130014855248e+02 -2.4598568752264196e+01 1.1138979078515300e+01 0 0 0
3790 352 7 0.0000000000000000e+00 -1.9354275082470033e+02 -2.5306771689787990e+01 2.1727997316550539e+01 0 0 0
579 58 2 0.0000000000000000e+00 -1.9224981977062970e+02 -3.8317681859132797e+01 3.2098261088705890e+01 0 0 0
578 58 2 0.0000000000000000e+00 -1.9783302284801948e+02 -4.4321175942634525e+01 2.6585516646105848e+01 0 0 0
577 58 3 0.0000000000000000e+00 -1.9469273400577509e+02 -5.1771807338275934e+01 1.9667713203129793e+01 0 0 0
825 83 6 0.0000000000000000e+00 -1.9935475296298898e+02 -3.0289008686405893e+01 2.7329863261783235e+01 0 0 0
824 83 5 0.0000000000000000e+00 -2.0250213529111014e+02 -3.1024491459529266e+01 1.7665150664023763e+01 0 0 0
3792 352 8 0.0000000000000000e+00 -1.7847444677004788e+02 -3.0340973944969001e+01 2.7653398994602558e+01 0 0 0
3791 352 8 0.0000000000000000e+00 -1.8676602520052762e+02 -3.2840541608532668e+01 2.2797965017782921e+01 0 0 0
3611 342 8 0.0000000000000000e+00 -2.0450857347708092e+02 -3.3137976150149072e+01 4.1275389656144405e+01 0 0 0
2250 225 5 0.0000000000000000e+00 -1.7090387113473972e+02 -4.9651582819269002e+01 2.8226175520608010e+01 0 0 0
826 83 6 0.0000000000000000e+00 -1.9506964483372357e+02 -2.5025176246320250e+01 3.5122275097430261e+01 0 0 0
3613 342 8 0.0000000000000000e+00 -1.8878613335705145e+02 -3.0258471996036523e+01 3.9842843838833730e+01 0 0 0
3614 342 8 0.0000000000000000e+00 -1.7932361265117655e+02 -2.6519555994823197e+01 3.9720886923975620e+01 0 0 0
3793 352 7 0.0000000000000000e+00 -1.7117598069663345e+02 -3.5796046195987969e+01 3.1760689886947734e+01 0 0 0
2241 225 4 0.0000000000000000e+00 -1.8499584754025040e+02 -5.0117131673541536e+01 4.2602716251201628e+01 0 0 0
580 58 3 0.0000000000000000e+00 -1.8475267471662684e+02 -3.9509643872198318e+01 3.8860759397747081e+01 0 0 0
1973 198 6 0.0000000000000000e+00 -1.7812334055843061e+02 -1.9411307917907006e+01 3.1871012777986220e+01 0 0 0
33 4 2 0.0000000000000000e+00 -1.2477054198309908e+02 -5.4492987005739671e+01 1.7034993442492535e+01 0 0 0
791 80 1 0.0000000000000000e+00 -1.3966457740741879e+02 -1.9927328136515335e+01 5.0286200000000001e+00 0 0 0
1365 137 6 0.0000000000000000e+00 -1.6550235807812700e+02 -2.4417487845528701e+01 3.8799518142809113e+01 0 0 0
5029 417 8 0.0000000000000000e+00 -1.5580959169519494e+02 -2.5700965662404567e+01 3.3920150433801609e+01 0 0 0
1362 137 6 0.0000000000000000e+00 -1.6075332619008185e+02 -3.4463133249946715e+01 1.2783741445243276e+01 0 0 0
1364 137 5 0.0000000000000000e+00 -1.6637454827495060e+02 -2.5980240302073302e+01 2.8809576327736352e+01 0 0 0
241 25 1 0.0000000000000000e+00 -1.5464686580415039e+02 -4.7442106082698253e+01 5.0072700000000001e+00 0 0 0
1363 137 6 0.0000000000000000e+00 -1.6238537159560013e+02 -3.2144932417656911e+01 2.1685495202177833e+01 0 0 0
1361 137 4 0.0000000000000000e+00 -1.6453716362449131e+02 -2.8887476687292850e+01 4.9943288712132778e+00 0 0 0
245 25 2 0.0000000000000000e+00 -1.3120479390493628e+02 -2.6881606471099420e+01 6.4854513028051759e+00 0 0 0
1082 109 6 0.0000000000000000e+00 -1.3205037123347446e+02 -5.5112525824430477e+01 3.2765788540407634e+01 0 0 0
242 25 2 0.0000000000000000e+00 -1.4818586425852422e+02 -3.9919686170954286e+01 5.6333936923707881e+00 0 0 0
1083 109 6 0.0000000000000000e+00 -1.3220769441687855e+02 -4.5737082037754959e+01 3.6781013972509605e+01 0 0 0
2313 232 6 0.0000000000000000e+00 -1.4803303356130397e+02 -2.3365945900340247e+01 1.9192487893844582e+01 0 0 0
1971 198 4 0.0000000000000000e+00 -1.6126967231075849e+02 -2.1670852419854750e+01 2.1121395050581917e+01 0 0 0
1084 109 5 0.0000000000000000e+00 -1.3357152298129790e+02 -3.6192686244939992e+01 3.9227812572984611e+01 0 0 0
244 25 3 0.0000000000000000e+00 -1.4046700805418914e+02 -2.9321785188898804e+01 6.2009124843190868e+00 0 0 0
243 25 2 0.0000000000000000e+00 -1.3963056748573180e+02 -3.7999491263835310e+01 8.8410237695713467e-01 0 0 0
2311 232 4 0.0000000000000000e+00 -1.3952121892129483e+02 -3.8793780245166111e+01 1.1606539382040328e+01 0 0 0
2312 232 6 0.0000000000000000e+00 -1.4398920208311699e+02 -3.1593464183432612e+01 1.6184219333832246e+01 0 0 0
770 77 3 0.0000000000000000e+00 -1.5424217827440700e+02 -3.2415697748772679e+01 1.5550463046589433e+00 0 0 0
5026 417 8 0.0000000000000000e+00 -1.3487433991558234e+02 -2.2587290548428051e+01 2.5449266462545378e+01 0 0 0
247 25 3 0.0000000000000000e+00 -1.2811848017413635e+02 -4.4761951446904938e+01 1.6679832370743384e+01 0 0 0
5028 417 7 0.0000000000000000e+00 -1.5272320271815951e+02 -3.0473052093010825e+01 2.6301857062846139e+01 0 0 0
5027 417 8 0.0000000000000000e+00 -1.4250858386744730e+02 -2.8581271377562459e+01 2.8688838746808404e+01 0 0 0
1085 109 6 0.0000000000000000e+00 -1.4289734076011479e+02 -3.8842162171765999e+01 4.1327976329626352e+01 0 0 0
2314 232 5 0.0000000000000000e+00 -1.4955397486800450e+02 -1.9986106791602190e+01 2.8457568848464149e+01 0 0 0
769 77 2 0.0000000000000000e+00 -1.5346902200097347e+02 -2.5538911493339739e+01 9.1011918817686741e+00 0 0 0
5025 417 7 0.0000000000000000e+00 -1.3465688708834182e+02 -3.1959842373764513e+01 2.2997199129691680e+01 0 0 0
3794 352 8 0.0000000000000000e+00 -1.6161413145000927e+02 -3.9081083283999234e+01 3.4536034451722053e+01 0 0 0
792 80 2 0.0000000000000000e+00 -1.3503111473100731e+02 -1.9486715677905778e+01 1.4033024355094327e+01 0 0 0
246 25 2 0.0000000000000000e+00 -1.2982150385225358e+02 -3.6383252478727222e+01 1.1561824309208195e+01 0 0 0
3798 352 8 0.0000000000000000e+00 -1.4511928311581437e+02 -2.5535812552303813e+01 3.8090372375833702e+01 0 0 0
2316 232 6 0.0000000000000000e+00 -1.3597178804998259e+02 -1.9698948039318520e+01 4.0375844046308877e+01 0 0 0
32 4 2 0.0000000000000000e+00 -1.2446022888398139e+02 -5.5033958580681187e+01 7.1098415614760375e+00 0 0 0
3795 352 8 0.0000000000000000e+00 -1.5901771910875866e+02 -4.6329790079627635e+01 4.0884218540699223e+01 0 0 0
2082 209 6 0.0000000000000000e+00 -2.7144821953265142e+02 -2.1399140681214118e+02 6.6797820193566437e+01 0 0 0
2083 209 6 0.0000000000000000e+00 -2.6552325243190006e+02 -2.0700478483882088e+02 7.0310949003034750e+01 0 0 0
2081 209 4 0.0000000000000000e+00 -2.7738286981400609e+02 -2.1422889505350398e+02 5.8280212778511469e+01 0 0 0
2084 209 5 0.0000000000000000e+00 -2.6724242196282830e+02 -1.9721464790129622e+02 7.1850478705372282e+01 0 0 0
2085 209 6 0.0000000000000000e+00 -2.6076344621345027e+02 -1.9065016737359960e+02 7.5295100889210048e+01 0 0 0
3891 357 7 0.0000000000000000e+00 -2.6863120226116428e+02 -1.7955885832905790e+02 5.0673055614924657e+01 1 0 0
2086 209 6 0.0000000000000000e+00 -2.5701306528034343e+02 -1.8253110182967171e+02 7.7762912782746199e+01 0 0 0
3899 357 8 0.0000000000000000e+00 -2.5646381081711627e+02 -2.0055430196755285e+02 5.8016759445128123e+01 1 0 0
3900 357 7 0.0000000000000000e+00 -2.5605370321815190e+02 -1.9878800034142751e+02 6.7457025026133806e+01 1 0 0
3898 357 8 0.0000000000000000e+00 -2.5624169968752807e+02 -1.9875358038190390e+02 4.8493940017890921e+01 1 0 0
3890 357 8 0.0000000000000000e+00 -2.6012517622292694e+02 -1.8295954037277494e+02 5.4741341557081647e+01 1 0 0
3902 357 8 0.0000000000000000e+00 -2.4626480959441457e+02 -2.0578716898268209e+02 7.5968501029139318e+01 1 0 0
3903 357 9 0.0000000000000000e+00 -2.3765202368185012e+02 -2.0205931115260859e+02 7.1914103990387702e+01 1 0 0
3901 357 8 0.0000000000000000e+00 -2.5561612354064832e+02 -2.0208478273637766e+02 7.6869073895088192e+01 1 0 0
3885 357 7 0.0000000000000000e+00 -2.2755716165485072e+02 -1.8811552717113173e+02 7.2712407245841092e+01 1 0 0
5554 465 11 0.0000000000000000e+00 -2.3552964407831814e+02 -2.0162406890309714e+02 6.1650087019650542e+01 0 0 0
5553 465 10 0.0000000000000000e+00 -2.4516839094796202e+02 -2.0345099797258661e+02 6.4195308373428603e+01 0 0 0
5555 465 10 0.0000000000000000e+00 -2.2690733062347954e+02 -2.0334377865098608e+02 5.6201824581645880e+01 0 0 0
3886 357 8 0.0000000000000000e+00 -2.3497857782295327e+02 -1.8783124900519275e+02 7.9617215370464635e+01 1 0 0
3887 357 8 0.0000000000000000e+00 -2.4315457209329389e+02 -1.9120728512543414e+02 7.5477269119881868e+01 1 0 0
3888 357 7 0.0000000000000000e+00 -2.4902177851484541e+02 -1.8437654024991207e+02 7.1218698898470137e+01 1 0 0
3889 357 8 0.0000000000000000e+00 -2.5285241683799126e+02 -1.8412773426691442e+02 6.1433510721398505e+01 1 0 0
2090 209 5 0.0000000000000000e+00 -2.2855353541531412e+02 -1.7897535950426371e+02 8.1136745009618025e+01 0 0 0
2089 209 6 0.0000000000000000e+00 -2.3848281409269998e+02 -1.7690219783365984e+02 8.1656299212979690e+01 0 0 0
2088 209 6 0.0000000000000000e+00 -2.4506197170253472e+02 -1.7273773380895409e+02 7.5647973455129176e+01 0 0 0
2087 209 5 0.0000000000000000e+00 -2.5379042138008344e+02 -1.7526872696371316e+02 7.1956742102205453e+01 0 0 0
1000 100 5 0.0000000000000000e+00 -1.2623824852110246e+02 -1.5379263550130838e+02 5.3647352893791165e+01 0 0 0
999 100 6 0.0000000000000000e+00 -1.2868048252947190e+02 -1.4560914178973857e+02 5.7836453221738616e+01 0 0 0
1802 181 6 0.0000000000000000e+00 -1.4945663797710398e+02 -1.2178375996381249e+02 4.3160744840554642e+01 0 0 0
998 100 6 0.0000000000000000e+00 -1.2876389351692336e+02 -1.3675451960643073e+02 5.4067699214559298e+01 0 0 0
3276 324 9 0.0000000000000000e+00 -1.2935011802628435e+02 -1.2431974926115213e+02 7.6964652669118138e+01 0 0 0
1803 181 6 0.0000000000000000e+00 -1.4885044690074744e+02 -1.1410388847520839e+02 4.9442713220572337e+01 0 0 0
2218 222 6 0.0000000000000000e+00 -1.3036196393876983e+02 -1.0639342013876310e+02 7.4916771006904412e+01 0 0 0
2217 222 5 0.0000000000000000e+00 -1.2987398557745087e+02 -1.0055870224713948e+02 6.6570891167854398e+01 0 0 0
4781 404 7 0.0000000000000000e+00 -1.2999979508457790e+02 -1.2177168067726686e+02 6.3344577694470672e+01 0 0 0
1804 181 5 0.0000000000000000e+00 -1.4709876652042777e+02 -1.0447380554249963e+02 4.5873629396632793e+01 0 0 0
2220 222 5 0.0000000000000000e+00 -1.3378545355122694e+02 -1.1172414336893198e+02 6.2875711794831695e+01 0 0 0
4784 404 7 0.0000000000000000e+00 -1.4762755753800406e+02 -1.1210891703272989e+02 6.2814237487462094e+01 0 0 0
4785 404 8 0.0000000000000000e+00 -1.4325837769765971e+02 -1.0482025299991976e+02 6.6769156185721670e+01 0 0 0
2219 222 6 0.0000000000000000e+00 -1.3694366159109455e+02 -1.1251636390662999e+02 7.2198272193218926e+01 0 0 0
4782 404 8 0.0000000000000000e+00 -1.3998338514027901e+02 -1.2297312936465963e+02 6.3698029625807486e+01 0 0 0
4783 404 8 0.0000000000000000e+00 -1.4922290839714100e+02 -1.2166741264823061e+02 6.0994879765665615e+01 0 0 0
4786 404 8 0.0000000000000000e+00 -1.4472598552041771e+02 -1.0299929558415877e+02 5.6884847038356575e+01 0 0 0
997 100 5 0.0000000000000000e+00 -1.2394973508927707e+02 -1.3049282067745636e+02 4.8046305214890772e+01 0 0 0
4326 380 8 0.0000000000000000e+00 -2.8568735575047805e+02 -6.6295417382458808e+01 4.5132863528018582e+01 1 0 0
1440 144 5 0.0000000000000000e+00 -2.8426618763241959e+02 -8.3029675348962002e+01 4.7708220370817017e+01 0 0 0
1438 144 6 0.0000000000000000e+00 -2.6975169262176945e+02 -7.1128639418212856e+01 5.0106855880565774e+01 0 0 0
1439 144 6 0.0000000000000000e+00 -2.7548726848211209e+02 -7.9436367619068761e+01 5.1337849033367895e+01 0 0 0
1437 144 5 0.0000000000000000e+00 -2.6541560319149812e+02 -6.2136084277344324e+01 5.0111672839162658e+01 0 0 0
4796 404 9 0.0000000000000000e+00 -1.6996134235277401e+02 -7.6417819778341553e+01 4.5894702603800930e+01 0 0 0
3400 331 7 0.0000000000000000e+00 -1.9692278974959873e+02 -6.9427172160872857e+01 4.8470926059630486e+01 0 0 0
3399 331 8 0.0000000000000000e+00 -2.0056637409577834e+02 -7.8266773150069611e+01 5.0551145834581355e+01 0 0 0
3398 331 8 0.0000000000000000e+00 -2.0291513673417612e+02 -7.6770673049581774e+01 6.0637095577405660e+01 0 0 0
3397 331 7 0.0000000000000000e+00 -1.9702217119774122e+02 -6.9501444706937789e+01 6.4695595849538392e+01 0 0 0
5135 422 7 0.0000000000000000e+00 -1.8547450655890816e+02 -8.0778331604838684e+01 4.5811560586053020e+01 0 0 0
3396 331 8 0.0000000000000000e+00 -1.9310076804698477e+02 -6.1184843769656148e+01 6.7960692809446840e+01 0 0 0
3395 331 8 0.0000000000000000e+00 -1.8422151897671120e+02 -6.4376219934618319e+01 7.1184901798220693e+01 0 0 0
5134 422 8 0.0000000000000000e+00 -1.8350217470641471e+02 -7.3074647877823736e+01 5.1837294504825522e+01 0 0 0
5133 422 8 0.0000000000000000e+00 -1.8005929975762604e+02 -6.5963680812055458e+01 5.8479616591365591e+01 0 0 0
5132 422 7 0.0000000000000000e+00 -1.7238748266205181e+02 -5.9393725596623810e+01 5.9229857319252410e+01 0 0 0
2214 222 5 0.0000000000000000e+00 -1.3217266483778229e+02 -8.6123354522268073e+01 4.3420382203998095e+01 0 0 0
5127 422 8 0.0000000000000000e+00 -1.3303940410229976e+02 -6.9250357273449694e+01 8.4439955903212649e+01 0 0 0
5125 422 8 0.0000000000000000e+00 -1.2447263948388971e+02 -6.5170550486657120e+01 6.7290353400022013e+01 0 0 0
2216 222 6 0.0000000000000000e+00 -1.3133786978719877e+02 -9.4177713656553095e+01 5.9569524714983913e+01 0 0 0
4790 404 7 0.0000000000000000e+00 -1.4192528198550326e+02 -9.1394138570674826e+01 4.4279245144964634e+01 0 0 0
4789 404 8 0.0000000000000000e+00 -1.4046657746138314e+02 -8.4669799554535857e+01 5.1449546067281211e+01 0 0 0
4787 404 7 0.0000000000000000e+00 -1.4581087918568207e+02 -9.4769129929354207e+01 5.1772154868067766e+01 0 0 0
4788 404 8 0.0000000000000000e+00 -1.5012205852009703e+02 -8.6714213054218163e+01 4.9384448147451096e+01 0 0 0
2215 222 6 0.0000000000000000e+00 -1.2927286091793607e+02 -8.7102930582822779e+01 5.3121270726237107e+01 0 0 0
1915 192 6 0.0000000000000000e+00 -1.5329065414162051e+02 -7.8576406430787060e+01 8.1389740943642948e+01 0 0 0
2428 243 6 0.0000000000000000e+00 -1.5288419444530271e+02 -6.4167563334110440e+01 4.5248002337322376e+01 0 0 0
2427 243 5 0.0000000000000000e+00 -1.4597912819576146e+02 -6.3533065971365083e+01 5.2730289085050160e+01 0 0 0
1914 192 5 0.0000000000000000e+00 -1.5254363371917762e+02 -7.9601309341989761e+01 7.1473306272935687e+01 0 0 0