LAMMPS data file via write_data, version 5 Jun 2019, timestep = 330000000

5660 atoms
11 atom types
5930 bonds
7 bond types
4660 angles
4 angle types

-3.0000000000000000e+02 3.0000000000000000e+02 xlo xhi
-3.0000000000000000e+02 3.0000000000000000e+02 ylo yhi
0.0000000000000000e+00 3.0000000000000000e+02 zlo zhi

Masses

1 1000
2 450
3 450
4 11000
5 7000
6 450
7 450
8 450
9 450
10 450
11 20000

Pair Coeffs # lj/cut

1 0.24 10
2 0.24 10
3 0.24 10
4 0.24 10
5 0.24 10
6 0.24 10
7 0.24 10
8 0.24 10
9 0.24 10
10 0.24 10
11 0.24 30

Angle Coeffs # cosine

1 1
2 1
3 1
4 1

Atoms # full

3041 305 4 0.0000000000000000e+00 -2.1631413699606856e+02 -1.1103207738944707e+02 4.0396772703301082e+01 0 0 0
5640 494 10 0.0000000000000000e+00 -2.4495877329290704e+02 -1.0435088119358554e+02 2.9540659430025926e+01 0 1 0
1963 197 6 0.0000000000000000e+00 -2.2953665805428597e+02 -1.0213842638419310e+02 3.3389802040511057e+01 0 0 0
4302 378 9 0.0000000000000000e+00 -2.5275342916484962e+02 -1.0016925292225902e+02 2.3159810122089155e+01 0 0 0
4300 378 8 0.0000000000000000e+00 -2.6405409776094086e+02 -9.4839252053483904e+01 3.7106154588122941e+01 0 0 0
3315 327 7 0.0000000000000000e+00 -2.6652549611586920e+02 -7.5669921665122175e+01 2.7290118250779027e+01 1 0 0
2245 225 6 0.0000000000000000e+00 -2.5709794280795774e+02 -8.5438895109511819e+01 1.7993421451712361e+01 0 0 0
2244 225 5 0.0000000000000000e+00 -2.6696930059758057e+02 -8.2956182357564046e+01 1.8954141080157459e+01 0 0 0
3316 327 8 0.0000000000000000e+00 -2.7326863101182835e+02 -7.3786051693412489e+01 3.4632182957037038e+01 1 0 0
4296 378 7 0.0000000000000000e+00 -2.9272717482463531e+02 -7.3447623807770796e+01 3.0875984577939366e+01 0 0 0
3317 327 8 0.0000000000000000e+00 -2.8093585268067523e+02 -6.9057664177680408e+01 3.9274861031579725e+01 1 0 0
2243 225 6 0.0000000000000000e+00 -2.7533549925438774e+02 -8.0268329838454974e+01 1.6142024304995108e+01 0 0 0
2242 225 6 0.0000000000000000e+00 -2.8462977745711828e+02 -7.7927599931934907e+01 1.3526956636223677e+01 0 0 0
2241 225 4 0.0000000000000000e+00 -2.8692358486442157e+02 -6.9137893416465317e+01 1.7444193521555977e+01 0 0 0
2247 225 5 0.0000000000000000e+00 -2.6063859819013157e+02 -8.2052164595829623e+01 3.6678630212010354e+01 0 0 0
4299 378 7 0.0000000000000000e+00 -2.7080381456061207e+02 -8.8040594337640130e+01 3.7151246436501729e+01 0 0 0
391 40 1 0.0000000000000000e+00 -2.8882293291737523e+02 -6.4282894072845536e+01 5.0813899999999999e+00 1 0 0
575 58 2 0.0000000000000000e+00 -2.6239567014070855e+02 -7.1486506616754781e+01 1.2863978694058593e+01 0 0 0
576 58 2 0.0000000000000000e+00 -2.7080600910378610e+02 -7.1599122813501680e+01 1.8638099774770840e+01 0 0 0
577 58 3 0.0000000000000000e+00 -2.7818320492303076e+02 -6.8212454381932503e+01 2.4415435250871713e+01 0 0 0
4297 378 8 0.0000000000000000e+00 -2.8566688565597445e+02 -7.8518715137250410e+01 3.6884988247015471e+01 0 0 0
2762 277 6 0.0000000000000000e+00 -2.5875473416111453e+02 -6.5084636127723812e+01 2.4247512038159030e+01 0 0 0
4295 378 8 0.0000000000000000e+00 -2.8854602930712565e+02 -6.3830913840050314e+01 3.1010122168018093e+01 0 0 0
2246 225 6 0.0000000000000000e+00 -2.5650277275086870e+02 -8.1423609593469280e+01 2.7572507315979429e+01 0 0 0
977 98 5 0.0000000000000000e+00 -2.9838509035664566e+02 -7.5577045889712480e+01 4.1302876678140549e+01 0 0 0
579 58 2 0.0000000000000000e+00 -2.7347126914834200e+02 -6.1808881946317882e+01 4.0581341319956579e+01 0 0 0
4301 378 8 0.0000000000000000e+00 -2.5622118138444131e+02 -9.6523106178977173e+01 3.1184548625024785e+01 0 0 0
2761 277 4 0.0000000000000000e+00 -2.5654173602803689e+02 -6.1713735928645846e+01 1.5796953514422770e+01 0 0 0
578 58 2 0.0000000000000000e+00 -2.7862026670993112e+02 -6.2040312000000227e+01 3.1793024795067591e+01 0 0 0
4298 378 8 0.0000000000000000e+00 -2.7826120770906647e+02 -8.3365059364327792e+01 4.1142217481379021e+01 0 0 0
4333 380 8 0.0000000000000000e+00 -2.7541927992704188e+02 -9.6807996495288705e+01 4.1303643365628588e+01 1 0 0
1351 136 4 0.0000000000000000e+00 -2.5948649880355623e+02 -6.1661375786891114e+01 4.2342237926697763e+01 0 0 0
574 58 3 0.0000000000000000e+00 -2.5333686916533426e+02 -7.0856184567855109e+01 8.8127642826474073e+00 0 0 0
1962 197 6 0.0000000000000000e+00 -2.2614173337208206e+02 -9.6579877668690486e+01 2.6246635831278279e+01 0 0 0
5641 494 11 0.0000000000000000e+00 -2.4424745182377669e+02 -9.6103420769734200e+01 3.5322754607408129e+01 0 1 0
571 58 1 0.0000000000000000e+00 -2.3113529441489865e+02 -6.4751062319258565e+01 5.0072700000000001e+00 0 0 0
573 58 2 0.0000000000000000e+00 -2.4368049099091763e+02 -7.0171093008440067e+01 6.2575897856458873e+00 0 0 0
572 58 2 0.0000000000000000e+00 -2.3550315689242763e+02 -7.1928490253727389e+01 1.1467338540374852e+01 0 0 0
821 83 4 0.0000000000000000e+00 -2.4565458852230026e+02 -7.8077912470075646e+01 3.7767827573804503e+01 0 0 0
1961 197 4 0.0000000000000000e+00 -2.2257970049265990e+02 -9.1463493733363748e+01 1.8783532350415935e+01 0 0 0
757 76 3 0.0000000000000000e+00 -2.3355010786770816e+02 -6.1063536286943325e+01 2.9951994087202493e+01 0 0 0
751 76 1 0.0000000000000000e+00 -2.1990059331434949e+02 -7.5586435385257715e+01 6.8810700000000002e+00 0 0 0
753 76 2 0.0000000000000000e+00 -2.3262304767136550e+02 -8.2825813521080192e+01 1.7516309975893424e+01 0 0 0
754 76 3 0.0000000000000000e+00 -2.2690611120095801e+02 -8.3521814919329316e+01 2.5728491913377873e+01 0 0 0
756 76 2 0.0000000000000000e+00 -2.2619765340394528e+02 -6.6026658976900649e+01 3.4844841058879751e+01 0 0 0
755 76 2 0.0000000000000000e+00 -2.2676573017500564e+02 -7.5989587333806099e+01 3.2263396314094173e+01 0 0 0
752 76 2 0.0000000000000000e+00 -2.2411758663692842e+02 -8.2396818908499640e+01 1.2486181036795074e+01 0 0 0
5642 494 10 0.0000000000000000e+00 -2.3627548468996241e+02 -9.0315046945064410e+01 3.7922926033850253e+01 0 1 0
760 76 3 0.0000000000000000e+00 -2.5165877522348728e+02 -6.4750912484588568e+01 3.3584083023907368e+01 0 0 0
759 76 2 0.0000000000000000e+00 -2.4386186018645424e+02 -6.5671070870319937e+01 2.7319809794907712e+01 0 0 0
2248 225 6 0.0000000000000000e+00 -2.5497327777571309e+02 -8.9445837046611700e+01 4.0818560474255612e+01 0 0 0
758 76 2 0.0000000000000000e+00 -2.3746022104342202e+02 -6.1385697938029423e+01 2.0664493781576223e+01 0 0 0
822 83 6 0.0000000000000000e+00 -2.4867235662952811e+02 -7.0054370245896067e+01 4.2402905907964183e+01 0 0 0
2763 277 6 0.0000000000000000e+00 -2.6122492994319293e+02 -5.9287542895915479e+01 3.1095991199389179e+01 0 0 0
4455 387 7 0.0000000000000000e+00 -2.8073209435955164e+02 -5.3003926531157539e+01 3.8024648312319449e+01 1 0 0
1480 148 5 0.0000000000000000e+00 -2.8794061195811065e+02 -4.4261515179092285e+01 3.5614999102855045e+01 1 0 0
2767 277 5 0.0000000000000000e+00 -2.6100963933732919e+02 -4.0095158270924934e+01 1.3284042603240531e+01 0 0 0
2764 277 5 0.0000000000000000e+00 -2.6712896430143292e+02 -5.3166967597495066e+01 3.6393850578178451e+01 0 0 0
2766 277 6 0.0000000000000000e+00 -2.5950751840572394e+02 -4.5040253270830782e+01 2.2460259618054440e+01 0 0 0
2765 277 6 0.0000000000000000e+00 -2.5915192465779933e+02 -4.9811496537573426e+01 3.1270925273299980e+01 0 0 0
5008 416 8 0.0000000000000000e+00 -2.7891879077267868e+02 -3.2523351243006580e+01 2.4447347256241997e+01 0 0 0
5009 416 7 0.0000000000000000e+00 -2.7176793135913431e+02 -3.1658263988207334e+01 3.1330567692856405e+01 0 0 0
1479 148 6 0.0000000000000000e+00 -2.9205849047641482e+02 -3.7509340137310573e+01 3.0216365936565005e+01 1 0 0
2594 260 5 0.0000000000000000e+00 -2.7400972955928910e+02 -2.3176164132307100e+01 3.8179123147547500e+01 1 0 0
5010 416 8 0.0000000000000000e+00 -2.6261458760883778e+02 -3.1513822269853826e+01 3.4483971835513685e+01 0 0 0
2768 277 6 0.0000000000000000e+00 -2.6035743477793079e+02 -3.0051365538955878e+01 1.3152382522936524e+01 0 0 0
392 40 2 0.0000000000000000e+00 -2.9711826098462041e+02 -5.9279023462596115e+01 7.5719953887175278e+00 1 0 0
5011 416 8 0.0000000000000000e+00 -2.6096596094598607e+02 -4.0450465400518745e+01 3.8721445666971526e+01 0 0 0
1476 148 6 0.0000000000000000e+00 -2.9167988724674024e+02 -3.4894948050042807e+01 4.2529492331790209e+01 1 0 0
5006 416 7 0.0000000000000000e+00 -2.9123649903972893e+02 -2.8273767036413417e+01 3.3181953171207908e+01 0 0 0
2769 277 6 0.0000000000000000e+00 -2.5820130132253234e+02 -2.1414786254456558e+01 9.2161676306529934e+00 0 0 0
4294 378 8 0.0000000000000000e+00 -2.9801216627124563e+02 -5.9538659348515679e+01 3.0637133604313235e+01 0 0 0
5007 416 8 0.0000000000000000e+00 -2.8772230440913279e+02 -2.7785550319510740e+01 2.3484290058940140e+01 0 0 0
2752 276 6 0.0000000000000000e+00 -2.9637258662329725e+02 -3.4663218297206733e+01 2.0388058894523517e+01 0 0 0
2595 260 6 0.0000000000000000e+00 -2.8051185236122939e+02 -2.9331032552870095e+01 4.2796053517408915e+01 1 0 0
1478 148 6 0.0000000000000000e+00 -2.9865570177436280e+02 -4.2229822811731310e+01 3.5682545237433118e+01 1 0 0
393 40 2 0.0000000000000000e+00 -2.9994529053949071e+02 -5.5116151013641733e+01 1.6077748920761433e+01 1 0 0
4779 404 8 0.0000000000000000e+00 -2.5121376322620205e+02 -2.9861608590203133e+01 1.9554196173674686e+01 0 0 0
4780 404 8 0.0000000000000000e+00 -2.4351234167465799e+02 -3.6311309729862181e+01 1.5733872912656826e+01 0 0 0
4781 404 7 0.0000000000000000e+00 -2.4336993768527969e+02 -4.3096411372399530e+01 2.2729338437107867e+01 0 0 0
3821 353 7 0.0000000000000000e+00 -2.2940574283630647e+02 -4.0295359744191529e+01 2.6945982626043843e+01 0 0 0
1018 102 6 0.0000000000000000e+00 -2.5061461178368424e+02 -2.6425261491332328e+01 3.4110019516445163e+01 1 0 0
4791 404 8 0.0000000000000000e+00 -2.3117111799311633e+02 -3.1995410669680517e+01 3.2093386593325690e+01 0 0 0
2081 209 4 0.0000000000000000e+00 -2.2636311774183469e+02 -5.2740708048183635e+01 2.9145113349554926e+01 0 0 0
2082 209 6 0.0000000000000000e+00 -2.3240607684538350e+02 -5.0641828124712362e+01 3.7076529679905462e+01 0 0 0
4790 404 7 0.0000000000000000e+00 -2.3286307822287782e+02 -3.1635935231279404e+01 4.2473229028217098e+01 0 0 0
3822 353 8 0.0000000000000000e+00 -2.3350727447660898e+02 -4.3902971889990724e+01 1.8413864219400022e+01 0 0 0
2083 209 6 0.0000000000000000e+00 -2.4107242455569047e+02 -4.6203891498939214e+01 3.7060529792215540e+01 0 0 0
2480 248 5 0.0000000000000000e+00 -2.1988367733508193e+02 -2.5540747721193039e+01 4.0904257839530580e+01 0 0 0
4782 404 8 0.0000000000000000e+00 -2.4870644372875739e+02 -4.7189739597403531e+01 3.0177907203720437e+01 0 0 0
3817 353 8 0.0000000000000000e+00 -2.2108157248766412e+02 -2.7738710432190800e+01 1.9580462190163903e+01 0 0 0
1019 102 6 0.0000000000000000e+00 -2.4779756971141475e+02 -3.6242110722071601e+01 3.4971510800922225e+01 1 0 0
3820 353 8 0.0000000000000000e+00 -2.2241170921899172e+02 -3.8502549996953562e+01 1.9708636845732354e+01 0 0 0
2478 248 6 0.0000000000000000e+00 -2.2051712675586603e+02 -4.3400903383378946e+01 3.5672908665699055e+01 0 0 0
2477 248 5 0.0000000000000000e+00 -2.1186813720592758e+02 -4.8231492070421027e+01 3.8995362589472101e+01 0 0 0
2479 248 6 0.0000000000000000e+00 -2.2110815353745784e+02 -3.3173726447964981e+01 3.4365464247994446e+01 0 0 0
3823 353 8 0.0000000000000000e+00 -2.2409779481521801e+02 -4.7428420764337545e+01 1.6794813487343561e+01 0 0 0
4792 404 8 0.0000000000000000e+00 -2.3387725463814871e+02 -2.8281858787091345e+01 2.3096822997506433e+01 0 0 0
4793 404 7 0.0000000000000000e+00 -2.3972903660778982e+02 -2.5176395973888884e+01 1.6294112654779269e+01 0 0 0
3824 353 7 0.0000000000000000e+00 -2.1944660940482206e+02 -5.4978199455182541e+01 1.2816979805432961e+01 0 0 0
3819 353 8 0.0000000000000000e+00 -2.1372023231504141e+02 -4.0440149770544863e+01 1.3694812375641051e+01 0 0 0
3816 353 8 0.0000000000000000e+00 -2.2252616405169655e+02 -2.2095976534489083e+01 2.7628578319030090e+01 0 0 0
4784 404 7 0.0000000000000000e+00 -2.4055023612910051e+02 -5.7111605838216370e+01 4.1348357624015485e+01 0 0 0
4778 404 7 0.0000000000000000e+00 -2.5312321096512369e+02 -2.2055967266319769e+01 2.5343035702639110e+01 0 0 0
4783 404 8 0.0000000000000000e+00 -2.4918395573124030e+02 -5.2019644362542046e+01 3.8637228105322137e+01 0 0 0
4786 404 8 0.0000000000000000e+00 -2.2118418372339156e+02 -5.9907133230358170e+01 4.1749676929338712e+01 0 0 0
2770 277 5 0.0000000000000000e+00 -2.4984108031182205e+02 -2.0926317695382807e+01 1.3999865952540603e+01 0 0 0
4785 404 8 0.0000000000000000e+00 -2.3104377103127814e+02 -5.9632230955303903e+01 4.1058200381032776e+01 0 0 0
3818 353 7 0.0000000000000000e+00 -2.1499714116097005e+02 -3.0729304842277799e+01 1.2720648688999383e+01 0 0 0
3825 353 8 0.0000000000000000e+00 -2.1161382382676106e+02 -4.9977876052393995e+01 8.6403745159013514e+00 0 0 0
4101 368 8 0.0000000000000000e+00 -2.8656763779066267e+02 6.6033049289886101e+00 3.5450349885585474e+01 0 0 0
2593 260 6 0.0000000000000000e+00 -2.7622581451941886e+02 -1.8028896148112306e+01 2.9565493235166574e+01 1 0 0
2412 242 6 0.0000000000000000e+00 -2.7579683021198895e+02 9.6608036553198549e+00 3.6096417301047005e+01 0 0 0
2411 242 4 0.0000000000000000e+00 -2.7124154099739962e+02 8.4159059419130511e+00 2.7654479824073629e+01 0 0 0
2439 244 6 0.0000000000000000e+00 -2.8921180010296086e+02 1.0146288900274619e+01 2.6781979579865258e+01 0 0 0
2440 244 5 0.0000000000000000e+00 -2.8086223457784030e+02 1.5595299280286676e+01 2.7095060307759663e+01 0 0 0
192 20 2 0.0000000000000000e+00 -2.9286675660615504e+02 4.1300525957391034e+00 1.2235715198921460e+01 0 0 0
191 20 1 0.0000000000000000e+00 -2.9227898458559906e+02 -2.5642431655138083e+00 5.0072700000000001e+00 0 0 0
2438 244 6 0.0000000000000000e+00 -2.8745114683359958e+02 1.2670167862721640e+00 2.2516866038714475e+01 0 0 0
2592 260 6 0.0000000000000000e+00 -2.7472987387322598e+02 -8.1026265125205690e+00 3.2673110653253268e+01 1 0 0
194 20 3 0.0000000000000000e+00 -2.7340286634238856e+02 9.1439937955488801e+00 1.6782860535717329e+01 0 0 0
193 20 2 0.0000000000000000e+00 -2.8305470021498655e+02 6.9746726206852028e+00 1.3667639378411863e+01 0 0 0
2437 244 5 0.0000000000000000e+00 -2.9605584522290820e+02 -2.8802090452121787e+00 2.4421135013492663e+01 0 0 0
786 79 2 0.0000000000000000e+00 -2.5861587150924606e+02 5.6270626209289816e+00 2.8109741748605561e+01 1 0 0
71 8 1 0.0000000000000000e+00 -2.7337498990079519e+02 1.7707001840406392e+01 6.2303600000000001e+00 1 0 0
5024 416 9 0.0000000000000000e+00 -2.6250180460632140e+02 -1.3768963233483477e+01 3.8857043275907124e+01 0 0 0
2591 260 4 0.0000000000000000e+00 -2.6880662190619108e+02 -5.2903001158524239e+00 4.0591771046315394e+01 1 0 0
4100 368 7 0.0000000000000000e+00 -2.9102845991685024e+02 -2.6748341679918384e+00 3.3948582083660746e+01 0 0 0
4102 368 8 0.0000000000000000e+00 -2.9086446482043908e+02 1.6219577528667930e+01 3.4313890096847651e+01 0 0 0
787 79 3 0.0000000000000000e+00 -2.6271742302276425e+02 3.5077053214357576e+00 3.7120760757895169e+01 1 0 0
195 20 2 0.0000000000000000e+00 -2.7362072980097372e+02 1.8657164670334623e+01 1.8156771942084521e+01 0 0 0
4099 368 8 0.0000000000000000e+00 -2.9897582093060385e+02 8.1203973242684169e-01 3.9241020318595780e+01 0 0 0
4356 381 7 0.0000000000000000e+00 -2.1210310647815044e+02 1.4827604769791163e+01 1.4689100930740704e+01 0 0 0
3815 353 7 0.0000000000000000e+00 -2.1477863674042666e+02 -1.9826909753438144e+01 3.3252654305255099e+01 0 0 0
785 79 2 0.0000000000000000e+00 -2.4978445586020746e+02 7.4498425218440323e+00 2.5398597036660703e+01 1 0 0
3026 303 6 0.0000000000000000e+00 -2.3488731890989257e+02 -1.6334277229916456e+01 3.8138605828585035e+01 0 0 0
731 74 1 0.0000000000000000e+00 -2.2808019294324541e+02 -1.8833530204081882e+01 5.0286200000000001e+00 0 0 0
4794 404 8 0.0000000000000000e+00 -2.4154879503804972e+02 -1.5372070605864124e+01 1.5951807706459794e+01 0 0 0
5628 490 10 0.0000000000000000e+00 -2.5431021787912738e+02 -7.3339972755016456e+00 3.5776157708362867e+01 0 0 0
784 79 3 0.0000000000000000e+00 -2.4568917028161405e+02 1.6261048092326078e+01 2.3521279088816932e+01 1 0 0
1691 170 4 0.0000000000000000e+00 -2.5395435293075727e+02 1.4948061346963360e+01 3.1194553032724539e+01 0 0 0
4355 381 8 0.0000000000000000e+00 -2.1257260126693981e+02 5.8532978542952874e+00 1.0071349392558419e+01 0 0 0
1017 102 5 0.0000000000000000e+00 -2.4679365081026992e+02 -1.7678988298545480e+01 3.3145580631427094e+01 1 0 0
4795 404 8 0.0000000000000000e+00 -2.4479873705453051e+02 -5.9297380110629287e+00 1.8847079757217564e+01 0 0 0
4796 404 9 0.0000000000000000e+00 -2.4541445056103240e+02 4.1469279709114950e+00 1.7839755964721459e+01 0 0 0
5630 490 10 0.0000000000000000e+00 -2.4062669902418014e+02 3.7554448310976758e+00 2.7419691946310202e+01 0 0 0
5629 490 11 0.0000000000000000e+00 -2.4557536978549982e+02 -3.6193358955900585e+00 3.2445787728221816e+01 0 0 0
1013 102 6 0.0000000000000000e+00 -2.3343537397165875e+02 1.2939463358117470e+01 2.1689600825112645e+01 1 0 0
1014 102 5 0.0000000000000000e+00 -2.3121524702081226e+02 3.5345822243805332e+00 2.5182864158176351e+01 1 0 0
1016 102 6 0.0000000000000000e+00 -2.4040376458156200e+02 -1.1912552358159250e+01 2.7753934113422911e+01 1 0 0
732 74 2 0.0000000000000000e+00 -2.2227510669670781e+02 -1.1510443212851278e+01 9.8334088118685621e+00 0 0 0
1015 102 6 0.0000000000000000e+00 -2.3375169721091731e+02 -4.9342219598022110e+00 3.0599391315494660e+01 1 0 0
4266 377 8 0.0000000000000000e+00 -2.3195642406640815e+02 1.6368714471594902e+01 3.9262094772603589e+01 0 0 0
1692 170 6 0.0000000000000000e+00 -2.4733412614186565e+02 1.1672008334969158e+01 3.8498899272379759e+01 0 0 0
4354 381 8 0.0000000000000000e+00 -2.2217182932205975e+02 9.2603069435962393e+00 8.8368240923399721e+00 0 0 0
1694 170 5 0.0000000000000000e+00 -2.4439307243457969e+02 -6.2088046316551297e+00 4.2399899907373580e+01 0 0 0
4353 381 7 0.0000000000000000e+00 -2.2607025258777816e+02 1.6398922929713503e+01 1.3975994023765251e+01 0 0 0
733 74 2 0.0000000000000000e+00 -2.1326269330033892e+02 -1.2617040702430536e+01 1.4765726912803530e+01 0 0 0
4267 377 8 0.0000000000000000e+00 -2.3325526760899510e+02 6.5928649345881283e+00 4.0331973374971618e+01 0 0 0
4330 380 8 0.0000000000000000e+00 -2.8922594682356493e+02 -1.0021055599502819e+02 6.0470170973519245e+01 1 0 0
1964 197 5 0.0000000000000000e+00 -2.2898707067535892e+02 -1.0295147486028517e+02 4.3489634510091371e+01 0 0 0
1967 197 5 0.0000000000000000e+00 -2.4309319794095254e+02 -1.0082815817418317e+02 6.7162377104532567e+01 0 0 0
4337 380 7 0.0000000000000000e+00 -2.5331895127396183e+02 -1.0224371454556908e+02 6.3160605308599287e+01 1 0 0
1965 197 6 0.0000000000000000e+00 -2.2805078109332442e+02 -1.0525479463879635e+02 5.3312414676969134e+01 0 0 0
5627 489 10 0.0000000000000000e+00 -2.1773452386535595e+02 -1.0131331744837983e+02 5.1126632949633830e+01 0 0 0
4072 366 8 0.0000000000000000e+00 -2.2404144028698127e+02 -1.0193762712578632e+02 8.1975708681964960e+01 0 0 0
4071 366 7 0.0000000000000000e+00 -2.2502262497363665e+02 -1.0273630309097447e+02 7.2294591658727157e+01 0 0 0
4338 380 8 0.0000000000000000e+00 -2.4991254386731885e+02 -1.0255082776855143e+02 5.3721110034039896e+01 1 0 0
1966 197 6 0.0000000000000000e+00 -2.3601343655055823e+02 -1.0350698961584555e+02 5.9768053498638260e+01 0 0 0
3318 327 7 0.0000000000000000e+00 -2.9000690538383589e+02 -6.7995219499359493e+01 4.3383266779000131e+01 1 0 0
3319 327 8 0.0000000000000000e+00 -2.9731107509234886e+02 -6.1135047642693735e+01 4.5845791663765581e+01 1 0 0
4331 380 7 0.0000000000000000e+00 -2.8470428694438891e+02 -9.7466149640617076e+01 5.2983663517127674e+01 1 0 0
4335 380 8 0.0000000000000000e+00 -2.6722447051067320e+02 -9.9804917580018795e+01 5.8918460911874028e+01 1 0 0
4329 380 8 0.0000000000000000e+00 -2.9771173469152512e+02 -9.9238573508301869e+01 6.4714968369934340e+01 1 0 0
4336 380 8 0.0000000000000000e+00 -2.6168531448353218e+02 -9.9693726527287069e+01 6.7928208308990918e+01 1 0 0
4332 380 8 0.0000000000000000e+00 -2.8330341637579323e+02 -9.1649852012245589e+01 4.5267693311117071e+01 1 0 0
4334 380 7 0.0000000000000000e+00 -2.6992784919698323e+02 -9.8369911144318138e+01 4.9669875176602829e+01 1 0 0
942 95 6 0.0000000000000000e+00 -2.6934489327981032e+02 -7.7650892255750236e+01 4.3580925042493732e+01 0 0 0
943 95 6 0.0000000000000000e+00 -2.6260484038202122e+02 -8.0717860585129358e+01 5.0705135202247575e+01 0 0 0
1472 148 6 0.0000000000000000e+00 -2.9343736426722984e+02 -6.7211725271374164e+01 6.4906158114583747e+01 1 0 0
1471 148 4 0.0000000000000000e+00 -2.9300279214057485e+02 -7.4536796921703370e+01 7.1181680644868635e+01 1 0 0
3934 359 8 0.0000000000000000e+00 -2.8467340353881690e+02 -6.8582293555008533e+01 5.1824115276920651e+01 0 0 0
3933 359 8 0.0000000000000000e+00 -2.8885786932461025e+02 -7.7194571929999640e+01 4.9318998727336414e+01 0 0 0
3932 359 7 0.0000000000000000e+00 -2.8063070776694298e+02 -8.2619278463336556e+01 5.1001920258470228e+01 0 0 0
941 95 4 0.0000000000000000e+00 -2.7418400530613314e+02 -6.9646379761884219e+01 4.6714991340828611e+01 0 0 0
980 98 5 0.0000000000000000e+00 -2.8691144049727416e+02 -8.6491432283338682e+01 6.0685123851171134e+01 0 0 0
3931 359 8 0.0000000000000000e+00 -2.7203688013340411e+02 -8.8131555551577534e+01 4.9571560261293847e+01 0 0 0
979 98 6 0.0000000000000000e+00 -2.9487733804106153e+02 -8.1876110746990676e+01 5.6170870658598311e+01 0 0 0
3930 359 8 0.0000000000000000e+00 -2.6282986551546799e+02 -9.1460459388414677e+01 4.8334456011310138e+01 0 0 0
1354 136 5 0.0000000000000000e+00 -2.7543784157394560e+02 -6.7250397119530135e+01 5.8675423527451407e+01 0 0 0
945 95 6 0.0000000000000000e+00 -2.6206570023547152e+02 -6.7402201968262418e+01 6.4378258292302206e+01 0 0 0
3926 359 7 0.0000000000000000e+00 -2.5945685832223961e+02 -8.2218366895930814e+01 8.0145270981595473e+01 0 0 0
3927 359 8 0.0000000000000000e+00 -2.5656089044476141e+02 -8.1941707332240128e+01 7.0708100757231477e+01 0 0 0
944 95 5 0.0000000000000000e+00 -2.5906194402481339e+02 -7.4416501651307442e+01 5.8459763640347646e+01 0 0 0
1355 136 6 0.0000000000000000e+00 -2.7798213791846621e+02 -6.4938134340814784e+01 6.8164202953804264e+01 0 0 0
946 95 6 0.0000000000000000e+00 -2.5746333474033241e+02 -6.6859126604607667e+01 7.2612907141392455e+01 0 0 0
947 95 5 0.0000000000000000e+00 -2.5756402075115261e+02 -7.0502062261577834e+01 8.1547281547278573e+01 0 0 0
3928 359 8 0.0000000000000000e+00 -2.5733986479741435e+02 -8.5812174863890149e+01 6.1714469640134404e+01 0 0 0
978 98 6 0.0000000000000000e+00 -2.9917856444276390e+02 -7.4494797939047842e+01 5.1188520157994354e+01 0 0 0
580 58 3 0.0000000000000000e+00 -2.8119113321816837e+02 -6.0633977939897648e+01 4.5939058469396940e+01 0 0 0
1473 148 6 0.0000000000000000e+00 -2.9363618039976132e+02 -6.0471136380542930e+01 5.7504403905558000e+01 1 0 0
3935 359 7 0.0000000000000000e+00 -2.8394441107197088e+02 -6.0186398285026414e+01 5.6528418310344186e+01 0 0 0
4070 366 8 0.0000000000000000e+00 -2.2755559485246368e+02 -9.8257771367832206e+01 6.3817266485098280e+01 0 0 0
4067 366 8 0.0000000000000000e+00 -2.2954209494451143e+02 -8.1933038315955372e+01 4.4648972655640527e+01 0 0 0
5136 422 8 0.0000000000000000e+00 -2.1527089606422140e+02 -9.0460923928495220e+01 6.0308993579983074e+01 0 0 0
3929 359 7 0.0000000000000000e+00 -2.5448215985769841e+02 -8.8572100587238410e+01 5.2556990901768387e+01 0 0 0
4339 380 8 0.0000000000000000e+00 -2.4395584650433105e+02 -9.4780230247616515e+01 5.3756244743931852e+01 1 0 0
823 83 6 0.0000000000000000e+00 -2.4054196578800355e+02 -6.7280606319360515e+01 4.6593833639593576e+01 0 0 0
5138 422 9 0.0000000000000000e+00 -2.2441467991384687e+02 -9.3275916519065177e+01 4.6105652512079047e+01 0 0 0
5137 422 8 0.0000000000000000e+00 -2.2403180100929359e+02 -9.0088809699751053e+01 5.5456899503518287e+01 0 0 0
1968 197 6 0.0000000000000000e+00 -2.4678147158311799e+02 -9.8051540440846708e+01 7.6099067726652464e+01 0 0 0
4340 380 9 0.0000000000000000e+00 -2.4275072544315665e+02 -8.8003951422903555e+01 4.6298161972468691e+01 1 0 0
4065 366 7 0.0000000000000000e+00 -2.1619385611096001e+02 -8.0669825154418561e+01 5.7699064049804633e+01 0 0 0
2249 225 6 0.0000000000000000e+00 -2.5228071368694549e+02 -8.1379261749319525e+01 4.6766053069238602e+01 0 0 0
1969 197 6 0.0000000000000000e+00 -2.3985307014970516e+02 -9.0411272076360788e+01 7.5935086926041961e+01 0 0 0
4068 366 7 0.0000000000000000e+00 -2.3498062616296829e+02 -8.5610721303902181e+01 5.2546046850643258e+01 0 0 0
4063 366 8 0.0000000000000000e+00 -2.2453801357168200e+02 -7.3466601123352532e+01 7.1064210504951944e+01 0 0 0
824 83 5 0.0000000000000000e+00 -2.3490237032389743e+02 -7.4912984768663094e+01 5.0141343530713442e+01 0 0 0
2250 225 5 0.0000000000000000e+00 -2.5113762243564207e+02 -7.8591107374760625e+01 5.6533919917393412e+01 0 0 0
825 83 6 0.0000000000000000e+00 -2.4039433232472118e+02 -7.2825175291930705e+01 5.8516401920843464e+01 0 0 0
4062 366 7 0.0000000000000000e+00 -2.2786463282170473e+02 -8.1822129082862801e+01 7.5950115065385717e+01 0 0 0
4069 366 8 0.0000000000000000e+00 -2.3442144350342221e+02 -9.4130447599897749e+01 5.7499027850014045e+01 0 0 0
2088 209 6 0.0000000000000000e+00 -2.3074693147608463e+02 -7.9237869665485718e+01 6.5105203348476152e+01 0 0 0
2087 209 5 0.0000000000000000e+00 -2.2846260643118987e+02 -7.0545981478819897e+01 6.1347303216608019e+01 0 0 0
827 83 5 0.0000000000000000e+00 -2.4914666699372592e+02 -6.4242771400421759e+01 6.2834103646075739e+01 0 0 0
2089 209 6 0.0000000000000000e+00 -2.3855285528261922e+02 -7.7446223630727246e+01 7.1320309169546732e+01 0 0 0
2090 209 5 0.0000000000000000e+00 -2.3829083000389585e+02 -8.0462501396928133e+01 8.0396167528435242e+01 0 0 0
826 83 6 0.0000000000000000e+00 -2.4892717378819805e+02 -6.9071767534596148e+01 5.4517148671675280e+01 0 0 0
1970 197 5 0.0000000000000000e+00 -2.3051199197536545e+02 -9.2601116068043908e+01 7.2564402047926848e+01 0 0 0
2086 209 6 0.0000000000000000e+00 -2.3343751882321999e+02 -6.3766365823232697e+01 5.6675382541424753e+01 0 0 0
4061 366 8 0.0000000000000000e+00 -2.2221755834393500e+02 -8.6847231521862611e+01 6.9195843324242375e+01 0 0 0
4064 366 8 0.0000000000000000e+00 -2.1597813944670480e+02 -7.6234832197313779e+01 6.6460566959823140e+01 0 0 0
4066 366 8 0.0000000000000000e+00 -2.1975625435753435e+02 -8.1506397969265933e+01 4.8218662128116165e+01 0 0 0
828 83 6 0.0000000000000000e+00 -2.4440479855576763e+02 -6.6688424740792144e+01 7.1179156323160143e+01 0 0 0
950 95 5 0.0000000000000000e+00 -2.3638934875171935e+02 -6.7251051072102470e+01 8.3204171116691526e+01 0 0 0
5562 468 10 0.0000000000000000e+00 -2.3280086208930732e+02 -8.8207888876208656e+01 8.3098155335543268e+01 0 0 0
830 83 5 0.0000000000000000e+00 -2.5327956400588423e+02 -6.0737792344442752e+01 8.0390566932938157e+01 0 0 0
4664 398 7 0.0000000000000000e+00 -2.3443443760916202e+02 -6.3274400796069067e+01 6.8259752975500618e+01 0 0 0
3600 342 7 0.0000000000000000e+00 -2.2673102940425073e+02 -6.4253415756457443e+01 7.6823474005335953e+01 0 0 0
4665 398 8 0.0000000000000000e+00 -2.2497030993416774e+02 -6.0836486151795498e+01 6.5883016503051067e+01 0 0 0
4060 366 8 0.0000000000000000e+00 -2.1454496480070225e+02 -8.6709783079568425e+01 7.5299967079432477e+01 0 0 0
3938 359 7 0.0000000000000000e+00 -2.9762213993029354e+02 -4.7652826283841982e+01 7.2436963343611410e+01 0 0 0
933 94 6 0.0000000000000000e+00 -2.9668442989614880e+02 -5.1437590648956146e+01 8.1407734844705786e+01 1 0 0
4456 387 8 0.0000000000000000e+00 -2.7333097034121880e+02 -4.9468087598724793e+01 4.3498975186161537e+01 1 0 0
1352 136 6 0.0000000000000000e+00 -2.6638774625430415e+02 -5.6883022246683829e+01 4.8367871962404472e+01 0 0 0
1353 136 6 0.0000000000000000e+00 -2.7495850197815588e+02 -5.8343517638482503e+01 5.4262361818153067e+01 0 0 0
4457 387 8 0.0000000000000000e+00 -2.7108239662014159e+02 -4.4905947947904615e+01 5.1391670917650053e+01 1 0 0
3936 359 8 0.0000000000000000e+00 -2.8256598053418668e+02 -5.2006829801306090e+01 6.1420620158841885e+01 0 0 0
1356 136 6 0.0000000000000000e+00 -2.7290378796795511e+02 -5.6725910815067891e+01 6.5431236223404440e+01 0 0 0
4458 387 7 0.0000000000000000e+00 -2.6516324861598315e+02 -3.8962143478013793e+01 5.7021869070158282e+01 1 0 0
1474 148 5 0.0000000000000000e+00 -2.9086761937504070e+02 -5.1283877650668401e+01 5.4587226433641369e+01 1 0 0
934 94 5 0.0000000000000000e+00 -2.9134397477935403e+02 -4.3342928261082392e+01 8.0398527196127532e+01 1 0 0
2596 260 6 0.0000000000000000e+00 -2.8780547417637251e+02 -2.9264033917773066e+01 4.9774074761474338e+01 1 0 0
936 94 6 0.0000000000000000e+00 -2.9473053036603261e+02 -2.5223366150044164e+01 7.1101717975805670e+01 1 0 0
1358 136 6 0.0000000000000000e+00 -2.6494568525113192e+02 -4.3251852532423413e+01 6.5960406721311088e+01 0 0 0
1357 136 5 0.0000000000000000e+00 -2.7204506937101371e+02 -4.8265278771367143e+01 6.0338549874469997e+01 0 0 0
935 94 6 0.0000000000000000e+00 -2.9138429875501407e+02 -3.3514113695080660e+01 7.6683365861653385e+01 1 0 0
3937 359 8 0.0000000000000000e+00 -2.9053523045338608e+02 -4.8465680029710143e+01 6.5687346611432417e+01 0 0 0
2420 242 5 0.0000000000000000e+00 -2.7133648065169228e+02 -3.1330993069285594e+01 5.4385267336581826e+01 0 0 0
1475 148 6 0.0000000000000000e+00 -2.9118591190945341e+02 -4.2133417853474050e+01 4.9544102656788681e+01 1 0 0
2419 242 6 0.0000000000000000e+00 -2.7868315667157617e+02 -2.5958596916462433e+01 5.7562203640279428e+01 0 0 0
4461 387 7 0.0000000000000000e+00 -2.6475271579694527e+02 -2.3128561236817365e+01 5.5672105905756155e+01 1 0 0
4462 387 8 0.0000000000000000e+00 -2.6792981740065483e+02 -2.5550840061319562e+01 6.4843020851452508e+01 1 0 0
1359 136 6 0.0000000000000000e+00 -2.5979594305539320e+02 -4.1153068391737690e+01 7.4337803237668268e+01 0 0 0
2597 260 5 0.0000000000000000e+00 -2.9445208285623414e+02 -2.6795266217141108e+01 5.7056326372921809e+01 1 0 0
5012 416 7 0.0000000000000000e+00 -2.5984844911755550e+02 -4.7997516278398301e+01 4.5620131050445941e+01 0 0 0