LAMMPS data file via write_data, version 5 Jun 2019, timestep = 500000000

5660 atoms
11 atom types
5928 bonds
7 bond types
4660 angles
4 angle types

-3.0000000000000000e+02 3.0000000000000000e+02 xlo xhi
-3.0000000000000000e+02 3.0000000000000000e+02 ylo yhi
0.0000000000000000e+00 3.0000000000000000e+02 zlo zhi

Masses

1 1000
2 450
3 450
4 11000
5 7000
6 450
7 450
8 450
9 450
10 450
11 20000

Pair Coeffs # lj/cut

1 0.24 10
2 0.24 10
3 0.24 10
4 0.24 10
5 0.24 10
6 0.24 10
7 0.24 10
8 0.24 10
9 0.24 10
10 0.24 10
11 0.24 30

Angle Coeffs # cosine

1 1
2 1
3 1
4 1

Atoms # full

1720 172 5 0.0000000000000000e+00 -2.7569177995803159e+02 -1.8277068604685178e+02 1.3545297986020156e+01 0 0 0
192 20 2 0.0000000000000000e+00 -2.6345493437166402e+02 -1.9178357935862664e+02 6.0418007353784882e+00 0 0 0
199 20 2 0.0000000000000000e+00 -2.7866650091287676e+02 -1.9108410923518946e+02 3.8089276776856387e+01 0 0 0
200 20 3 0.0000000000000000e+00 -2.7376844249635030e+02 -1.9729070919032912e+02 3.2093769864817887e+01 0 0 0
193 20 2 0.0000000000000000e+00 -2.6299858395019112e+02 -1.8437090487010690e+02 1.2199126079590348e+01 0 0 0
1719 172 6 0.0000000000000000e+00 -2.6923682724450083e+02 -1.8350419663173489e+02 2.1486271216354190e+01 0 0 0
198 20 2 0.0000000000000000e+00 -2.7066158554870037e+02 -1.8482026043036851e+02 3.6136986204646803e+01 0 0 0
1718 172 6 0.0000000000000000e+00 -2.6634729416010583e+02 -1.9160065201148274e+02 2.6425815058617594e+01 0 0 0
1717 172 5 0.0000000000000000e+00 -2.5723993159782958e+02 -1.8966488754425154e+02 3.1236671307271404e+01 0 0 0
191 20 1 0.0000000000000000e+00 -2.5344972130295233e+02 -1.9281416307212325e+02 5.0072700000000001e+00 0 0 0
1716 172 6 0.0000000000000000e+00 -2.4799640115705540e+02 -1.8947078442261230e+02 2.7061426776926616e+01 0 0 0
1714 172 5 0.0000000000000000e+00 -2.5145027852242839e+02 -1.8120804750928681e+02 2.2824634928711859e+01 0 0 0
194 20 3 0.0000000000000000e+00 -2.6477703614832757e+02 -1.7481889069403232e+02 1.4802995177828834e+01 0 0 0
195 20 2 0.0000000000000000e+00 -2.6037947676177788e+02 -1.6804692219054567e+02 2.1358257230176235e+01 0 0 0
196 20 2 0.0000000000000000e+00 -2.6507853353540804e+02 -1.7575683628713017e+02 2.5909736456505307e+01 0 0 0
197 20 3 0.0000000000000000e+00 -2.6529109371748376e+02 -1.7659657732753490e+02 3.5207197913431884e+01 0 0 0
822 83 6 0.0000000000000000e+00 -2.7633586831610916e+02 -1.7258689305329756e+02 3.7627698304818182e+01 0 0 0
1711 172 4 0.0000000000000000e+00 -2.6421181861236795e+02 -1.7054272512977627e+02 4.7290312071055167e+00 0 0 0
1715 172 6 0.0000000000000000e+00 -2.4635119811340155e+02 -1.8008562619214229e+02 3.1291627037392342e+01 0 0 0
1712 172 6 0.0000000000000000e+00 -2.5460179554787686e+02 -1.7148018170235198e+02 9.2711486740317763e+00 0 0 0
1713 172 6 0.0000000000000000e+00 -2.5047292117176536e+02 -1.8065818208774758e+02 1.2767901790514511e+01 0 0 0
761 77 1 0.0000000000000000e+00 -2.6755291481840715e+02 -1.0554921400415428e+02 5.0072700000000001e+00 0 0 0
762 77 2 0.0000000000000000e+00 -2.6016093793569797e+02 -1.0287134181499053e+02 1.1135232664774051e+01 0 0 0
3933 359 8 0.0000000000000000e+00 -2.4155483061282746e+02 -1.0359335807130361e+02 3.1207428834483835e+01 0 0 0
2761 277 4 0.0000000000000000e+00 -2.1050938580288968e+02 -1.0251796032205807e+02 2.0026286794828348e+01 0 0 0
2063 207 6 0.0000000000000000e+00 -2.6047669138999032e+02 -9.3354189059420321e+01 2.4551127934867356e+01 1 0 0
1262 127 6 0.0000000000000000e+00 -2.7263778213456953e+02 -7.7236964519508192e+01 2.8357645640783176e+01 0 0 0
2064 207 5 0.0000000000000000e+00 -2.6456377687799016e+02 -8.5332686916591697e+01 2.9340107729893528e+01 1 0 0
2061 207 4 0.0000000000000000e+00 -2.5966477556037955e+02 -8.3286761000102729e+01 1.1162274957836699e+01 1 0 0
769 77 2 0.0000000000000000e+00 -2.7277228953753558e+02 -6.9141486180046485e+01 2.0417686742500454e+01 0 0 0
1261 127 4 0.0000000000000000e+00 -2.7583205890844886e+02 -8.6769043964021833e+01 2.5701226240567809e+01 0 0 0
770 77 3 0.0000000000000000e+00 -2.7895249746311072e+02 -7.7424470796164087e+01 2.0306237590010905e+01 0 0 0
4354 381 8 0.0000000000000000e+00 -2.7653533539670735e+02 -6.4741538282686889e+01 2.9455882281258166e+01 0 0 0
4355 381 8 0.0000000000000000e+00 -2.6693060098346882e+02 -6.6169687601405442e+01 2.9956018167416502e+01 0 0 0
768 77 2 0.0000000000000000e+00 -2.6511826896510246e+02 -7.2441010334358424e+01 1.4771303440270099e+01 0 0 0
2065 207 6 0.0000000000000000e+00 -2.5977478066080846e+02 -8.1764900776657015e+01 3.7471477439308380e+01 1 0 0
1263 127 6 0.0000000000000000e+00 -2.7020450256745829e+02 -8.1042408970252012e+01 3.7350703808002550e+01 0 0 0
2062 207 6 0.0000000000000000e+00 -2.6319334850036097e+02 -9.2121916709876061e+01 1.5214333336208220e+01 1 0 0
4356 381 7 0.0000000000000000e+00 -2.5945203021691702e+02 -7.0501252790506882e+01 3.5066325094917495e+01 0 0 0
2540 254 5 0.0000000000000000e+00 -2.5804375598005487e+02 -7.3066553166121565e+01 2.3780975215851019e+01 0 0 0
4351 381 8 0.0000000000000000e+00 -2.8287483308009217e+02 -6.4517653830066962e+01 3.7661482983084824e+01 0 0 0
3934 359 8 0.0000000000000000e+00 -2.4661981685386593e+02 -1.0062927629226832e+02 3.9350459190571186e+01 0 0 0
412 42 2 0.0000000000000000e+00 -2.2300906936725448e+02 -1.0141526742958584e+02 2.1671201787323624e+00 1 0 0
411 42 1 0.0000000000000000e+00 -2.3167634799841107e+02 -9.8357660782771305e+01 5.0286200000000001e+00 1 0 0
767 77 3 0.0000000000000000e+00 -2.5591651004740899e+02 -7.2452780450777169e+01 1.1045969211504753e+01 0 0 0
763 77 2 0.0000000000000000e+00 -2.5217241624470773e+02 -9.9200086808011335e+01 1.5176810045966613e+01 0 0 0
3932 359 7 0.0000000000000000e+00 -2.3778498669464562e+02 -9.6350975725325043e+01 3.7231512770753639e+01 0 0 0
766 77 2 0.0000000000000000e+00 -2.4746338455395664e+02 -7.4274793518833320e+01 6.3706924695852667e+00 0 0 0
2070 207 5 0.0000000000000000e+00 -2.3759857294163666e+02 -9.3557637895596898e+01 2.6100642272055314e+01 1 0 0
2069 207 6 0.0000000000000000e+00 -2.4694914669452325e+02 -9.1816047723413106e+01 2.9341612061792112e+01 1 0 0
2068 207 6 0.0000000000000000e+00 -2.5371242060053456e+02 -9.0669699195796440e+01 3.6209873810072288e+01 1 0 0
764 77 3 0.0000000000000000e+00 -2.5245331952290053e+02 -9.3027525553518956e+01 7.8242938874615140e+00 0 0 0
765 77 2 0.0000000000000000e+00 -2.5103120538722303e+02 -8.3255301123051950e+01 5.4968824522250666e+00 0 0 0
2536 254 6 0.0000000000000000e+00 -2.2433972580140320e+02 -7.2510829232114830e+01 2.8213203464277534e+01 0 0 0
2591 260 4 0.0000000000000000e+00 -2.2734069166906531e+02 -9.3863992167896768e+01 3.7653196845099984e+01 1 0 0
2537 254 5 0.0000000000000000e+00 -2.3012635470144926e+02 -6.5583259945837284e+01 2.3732560168261383e+01 0 0 0
2594 260 5 0.0000000000000000e+00 -2.2547337845825592e+02 -7.9766315070533636e+01 4.2268177338710515e+01 1 0 0
416 42 2 0.0000000000000000e+00 -2.2585496132911243e+02 -8.2462716218414613e+01 2.0824702364617291e+01 1 0 0
2539 254 6 0.0000000000000000e+00 -2.4855513144177260e+02 -7.2239575350640109e+01 2.7413263231053687e+01 0 0 0
417 42 3 0.0000000000000000e+00 -2.2311396251989191e+02 -8.7326088220834478e+01 2.9335051556699728e+01 1 0 0
2538 254 6 0.0000000000000000e+00 -2.3818459329614518e+02 -7.0957645738168281e+01 2.6732548821410795e+01 0 0 0
415 42 2 0.0000000000000000e+00 -2.1909946466337988e+02 -8.5628262865374040e+01 1.4606612852416262e+01 1 0 0
2535 254 6 0.0000000000000000e+00 -2.1756174177325082e+02 -7.1300049778600794e+01 3.5129239881408260e+01 0 0 0
2595 260 6 0.0000000000000000e+00 -2.3451233460026467e+02 -7.7376310265643838e+01 4.0081213733098657e+01 1 0 0
2533 254 6 0.0000000000000000e+00 -2.1641748865037027e+02 -6.4959934639219114e+01 2.1289405121736117e+01 0 0 0
413 42 2 0.0000000000000000e+00 -2.2060842130218822e+02 -9.7926530006393008e+01 1.1370046960152699e+01 1 0 0
418 42 2 0.0000000000000000e+00 -2.1508955685013436e+02 -8.4474216508608833e+01 3.5485920345584816e+01 1 0 0
2532 254 6 0.0000000000000000e+00 -2.2203509424089674e+02 -6.5497452238315915e+01 1.3490600399485880e+01 0 0 0
3924 359 8 0.0000000000000000e+00 -2.3527959271133565e+02 -6.4288765412515772e+01 4.1952148481292838e+01 0 0 0
414 42 3 0.0000000000000000e+00 -2.1278865268479669e+02 -9.2957123880554050e+01 1.4622691916425840e+01 1 0 0
2762 277 6 0.0000000000000000e+00 -2.0387026607471688e+02 -9.5059420251368934e+01 2.0353602364290307e+01 0 0 0
4876 409 7 0.0000000000000000e+00 -2.1269052772080701e+02 -7.3920683041379263e+01 2.4638095711899794e+01 0 0 0
4877 409 8 0.0000000000000000e+00 -2.1027756437420359e+02 -8.0792575557159509e+01 1.7368959399912633e+01 0 0 0
4878 409 8 0.0000000000000000e+00 -2.0485839187784748e+02 -8.5543070528584735e+01 2.4782073462250906e+01 0 0 0
5449 439 7 0.0000000000000000e+00 -1.9936196934855030e+02 -7.0078285202972779e+01 3.1810654281615459e+01 0 0 0
2763 277 6 0.0000000000000000e+00 -1.9497552555676251e+02 -9.3494595267273226e+01 1.6196669453314776e+01 0 0 0
4879 409 7 0.0000000000000000e+00 -2.0146717176999556e+02 -8.2852070025023977e+01 3.3754635118529833e+01 0 0 0
4882 409 7 0.0000000000000000e+00 -1.8151796206579056e+02 -8.5510518947214635e+01 2.6572739989679047e+01 0 0 0
2765 277 6 0.0000000000000000e+00 -1.7713373522585621e+02 -9.4505792086204835e+01 2.4248523479382907e+01 0 0 0
2764 277 5 0.0000000000000000e+00 -1.8726254909480144e+02 -9.3419142385167873e+01 2.2636729366007721e+01 0 0 0
2590 259 5 0.0000000000000000e+00 -1.8660211922848183e+02 -7.8114650975266585e+01 1.3363549683988781e+01 0 0 0
4880 409 8 0.0000000000000000e+00 -1.9561680040980841e+02 -8.8166660119680003e+01 4.0004215813519806e+01 0 0 0
4881 409 8 0.0000000000000000e+00 -1.8795695942128131e+02 -8.5249046266051437e+01 3.3946864879066055e+01 0 0 0
4883 409 8 0.0000000000000000e+00 -1.8393765478258121e+02 -7.5406165704883264e+01 2.8172247281340255e+01 0 0 0
791 80 1 0.0000000000000000e+00 -1.8177148976403711e+02 -8.8285289619273001e+01 5.0286200000000001e+00 0 0 0
5447 439 8 0.0000000000000000e+00 -1.9430678895403852e+02 -8.2305073857579842e+01 1.7753407778043833e+01 0 0 0
5448 439 8 0.0000000000000000e+00 -1.9460648771176733e+02 -7.6045776949260556e+01 2.5860519766090903e+01 0 0 0
4884 409 8 0.0000000000000000e+00 -1.8895035593982445e+02 -6.6916845741086590e+01 2.8228668508374142e+01 0 0 0
5446 439 7 0.0000000000000000e+00 -1.9529029161350530e+02 -7.2097059246157102e+01 1.6792571333352935e+01 0 0 0
2587 259 5 0.0000000000000000e+00 -1.7469704097975736e+02 -7.0008265360829526e+01 8.1708033039927859e+00 0 0 0
2589 259 6 0.0000000000000000e+00 -1.9200735296840739e+02 -7.5026783791766007e+01 5.7719872400629759e+00 0 0 0
2588 259 6 0.0000000000000000e+00 -1.8323454133263084e+02 -7.1819848912228636e+01 2.4936201380264653e+00 0 0 0
2534 254 5 0.0000000000000000e+00 -2.1215100831069117e+02 -6.4244886228458071e+01 3.0122936014021189e+01 0 0 0
4887 409 8 0.0000000000000000e+00 -1.7253081646519084e+02 -7.1354095366979820e+01 2.6714865543893307e+01 0 0 0
2768 277 6 0.0000000000000000e+00 -1.7617537477273740e+02 -9.2994347426851533e+01 3.4324776151322538e+01 0 0 0
4875 409 8 0.0000000000000000e+00 -2.0798368366580689e+02 -7.3101112165046089e+01 3.3306376106579798e+01 0 0 0
792 80 2 0.0000000000000000e+00 -1.7185208173401557e+02 -8.8294020975738164e+01 3.1980007740182623e+00 0 0 0
4886 409 8 0.0000000000000000e+00 -1.7980471979090208e+02 -6.3864213855298644e+01 2.7602023921939679e+01 0 0 0
2769 277 6 0.0000000000000000e+00 -1.7231692874298818e+02 -8.4709742805355560e+01 3.7435715077129522e+01 0 0 0
419 42 2 0.0000000000000000e+00 -2.0762014042565829e+02 -9.1024669874576674e+01 3.5134549316401809e+01 1 0 0
5445 439 8 0.0000000000000000e+00 -1.9083444506414602e+02 -6.3282876870544797e+01 1.4986670505368336e+01 0 0 0
2084 209 5 0.0000000000000000e+00 -2.0408608369212322e+02 -6.2303766240780291e+01 2.6407725041379621e+01 0 0 0
4353 381 7 0.0000000000000000e+00 -2.8546587809639863e+02 -5.9911290518272693e+01 2.7119778353814286e+01 0 0 0
3781 351 8 0.0000000000000000e+00 -2.8155531009850375e+02 -2.3373660510916842e+01 4.0507292875761514e+01 0 0 0
4352 381 8 0.0000000000000000e+00 -2.9168853761137092e+02 -6.1649681387033084e+01 3.3980239862839099e+01 0 0 0
3154 316 5 0.0000000000000000e+00 -2.7589146608136588e+02 -2.7896862680708704e+01 2.2007930713272259e+01 1 0 0
3778 351 8 0.0000000000000000e+00 -2.6799897115954036e+02 -2.4406613759456938e+01 2.9826869173028584e+01 0 0 0
3158 316 6 0.0000000000000000e+00 -2.6506975027187718e+02 -5.3362257260600018e+01 1.9244919087094917e+01 1 0 0
3157 316 5 0.0000000000000000e+00 -2.6261680531019249e+02 -5.2694642758949840e+01 2.8350449420979370e+01 1 0 0
3160 316 5 0.0000000000000000e+00 -2.6163538733649074e+02 -3.9373993610664471e+01 9.4429570317346716e+00 1 0 0
3771 351 7 0.0000000000000000e+00 -2.7661883373038285e+02 -5.6994527177590726e+01 2.1842074626334778e+01 0 0 0
3772 351 8 0.0000000000000000e+00 -2.7908092041721744e+02 -4.8437903955028382e+01 1.7279932527279353e+01 0 0 0
3773 351 8 0.0000000000000000e+00 -2.7422544594471645e+02 -4.0224423095410771e+01 1.5940464595501140e+01 0 0 0
3156 316 6 0.0000000000000000e+00 -2.7018031476501676e+02 -4.5927231707312657e+01 2.6910626169024116e+01 1 0 0
3155 316 6 0.0000000000000000e+00 -2.7170214694620313e+02 -3.5847538600079922e+01 2.6587606706271707e+01 1 0 0
3779 351 8 0.0000000000000000e+00 -2.7224495935476546e+02 -2.9465619779297572e+01 3.7054911481479785e+01 0 0 0
3784 351 8 0.0000000000000000e+00 -2.9833404155103386e+02 -3.2817336838692675e+01 4.2072896058114274e+01 0 0 0
3774 351 7 0.0000000000000000e+00 -2.6893923040848620e+02 -3.2073569830326640e+01 1.3260259819485604e+01 0 0 0
666 67 2 0.0000000000000000e+00 -2.9826891555365773e+02 -3.7451811950889272e+01 2.2410017930074279e+01 1 0 0
661 67 1 0.0000000000000000e+00 -2.9512870603661480e+02 -3.1967148086501822e+01 7.9355000000000002e+00 1 0 0
3777 351 7 0.0000000000000000e+00 -2.6090157759822318e+02 -2.9593551644821865e+01 2.5481666651138500e+01 0 0 0
3785 351 8 0.0000000000000000e+00 -2.9047490255092453e+02 -2.9990744930495797e+01 3.6486103761139567e+01 0 0 0
3159 316 6 0.0000000000000000e+00 -2.6296151567304724e+02 -4.9319366684642496e+01 1.0464189915791051e+01 1 0 0
3776 351 8 0.0000000000000000e+00 -2.6049135069735070e+02 -2.6159417956336721e+01 1.5695456363151804e+01 0 0 0
3786 351 7 0.0000000000000000e+00 -2.8352654875025149e+02 -2.5556455320574507e+01 3.1009574486240346e+01 0 0 0
3775 351 8 0.0000000000000000e+00 -2.6731669475431460e+02 -2.2518767679639708e+01 9.1772155118279670e+00 0 0 0
662 67 2 0.0000000000000000e+00 -2.9833749821093517e+02 -2.2602002918246672e+01 7.5640212372340407e+00 1 0 0
3153 316 6 0.0000000000000000e+00 -2.7727529601330502e+02 -2.3226492474895569e+01 1.3031723547209438e+01 1 0 0
3923 359 7 0.0000000000000000e+00 -2.2967540119083807e+02 -6.1022219965221417e+01 3.4086339977676062e+01 0 0 0
675 68 2 0.0000000000000000e+00 -2.3083169324307903e+02 -3.8853928521269943e+01 2.4713090468975089e+01 0 0 0
674 68 3 0.0000000000000000e+00 -2.2817353614961354e+02 -2.9395768834234989e+01 2.6708381657647145e+01 0 0 0
971 98 4 0.0000000000000000e+00 -2.2542570840472527e+02 -3.7616089717247121e+01 3.3556067888899001e+01 0 0 0
972 98 6 0.0000000000000000e+00 -2.1601431341380822e+02 -4.0814681214909974e+01 3.6188231327776201e+01 0 0 0
676 68 2 0.0000000000000000e+00 -2.3169651313440488e+02 -4.7329240758225204e+01 3.0387557170805668e+01 0 0 0
679 68 2 0.0000000000000000e+00 -2.1511220785202920e+02 -5.4291468559124027e+01 1.9722844110368325e+01 0 0 0
680 68 3 0.0000000000000000e+00 -2.1501588407627446e+02 -5.8987214383158147e+01 1.1170180306677009e+01 0 0 0
2531 254 4 0.0000000000000000e+00 -2.2536427210198434e+02 -5.6265090452666868e+01 1.4656649546283603e+01 0 0 0
677 68 3 0.0000000000000000e+00 -2.2433261577923346e+02 -5.1755071755981163e+01 3.5930227951976697e+01 0 0 0
678 68 2 0.0000000000000000e+00 -2.1801499562284727e+02 -5.3564481125365710e+01 2.8987268554827295e+01 0 0 0
3904 358 7 0.0000000000000000e+00 -2.1513539214777205e+02 -3.0191848375371713e+01 3.5084518205926237e+01 0 0 0
2439 244 6 0.0000000000000000e+00 -2.3716231926044316e+02 -2.5247578501867313e+01 3.7322248248812770e+01 0 0 0
673 68 2 0.0000000000000000e+00 -2.2324030035688125e+02 -2.6056148911350338e+01 1.9243151963375571e+01 0 0 0
5450 439 8 0.0000000000000000e+00 -2.0415119362725969e+02 -6.1962126840589022e+01 3.5328700550302592e+01 0 0 0
4885 409 7 0.0000000000000000e+00 -1.8537083893975839e+02 -6.0215969201011497e+01 3.5141012479874682e+01 0 0 0
1806 181 6 0.0000000000000000e+00 -2.0580024072986041e+02 -2.5830536794396700e+01 3.8921824281465533e+01 0 0 0
1808 181 6 0.0000000000000000e+00 -2.0843920534543025e+02 -3.8047715222635951e+01 4.0391694203549847e+01 0 0 0
973 98 6 0.0000000000000000e+00 -2.0975697953537860e+02 -4.7810305530630522e+01 3.7818394366651859e+01 0 0 0
3905 358 8 0.0000000000000000e+00 -2.1144613764449321e+02 -2.3979742738449339e+01 2.9329070591081283e+01 0 0 0
2083 209 6 0.0000000000000000e+00 -2.0341278790858183e+02 -5.6602247416531391e+01 1.8926407728339061e+01 0 0 0
2085 209 6 0.0000000000000000e+00 -1.9490931853346100e+02 -5.9239063530761470e+01 2.5047756120599772e+01 0 0 0
1809 181 6 0.0000000000000000e+00 -2.0713054386613456e+02 -4.0156844028147432e+01 3.0772541656091612e+01 0 0 0
390 39 3 0.0000000000000000e+00 -1.9272760153161039e+02 -2.7788416210454848e+01 2.9341936118760685e+01 0 0 0
382 39 2 0.0000000000000000e+00 -1.7922191471385381e+02 -2.9378267257373320e+01 2.4963949581617286e+00 0 0 0
389 39 2 0.0000000000000000e+00 -1.9900552461265994e+02 -3.3319622011062833e+01 2.5185415093669441e+01 0 0 0
388 39 2 0.0000000000000000e+00 -1.9940161402170634e+02 -3.0108916669400035e+01 1.5904310925161163e+01 0 0 0
5444 439 8 0.0000000000000000e+00 -1.8629617282194641e+02 -5.5418013714103161e+01 1.8923075896367184e+01 0 0 0
5443 439 7 0.0000000000000000e+00 -1.8032837798859987e+02 -5.1036147886241118e+01 2.5197312234494621e+01 0 0 0
387 39 3 0.0000000000000000e+00 -2.0039776784986213e+02 -3.4608214580483995e+01 7.4724127154109228e+00 0 0 0
386 39 2 0.0000000000000000e+00 -1.9370254476642782e+02 -2.8038067423269645e+01 4.3113171738027729e+00 0 0 0
1810 181 5 0.0000000000000000e+00 -2.1144409951591552e+02 -3.6129541756471106e+01 2.2480640763105686e+01 0 0 0
2089 209 6 0.0000000000000000e+00 -2.0246834536958596e+02 -4.6743719775358258e+01 1.9182682007181363e+01 0 0 0
2088 209 6 0.0000000000000000e+00 -1.9384689763677815e+02 -4.1373469167455248e+01 1.9325665614715376e+01 0 0 0
2082 209 6 0.0000000000000000e+00 -1.9940673809255054e+02 -5.1182905536646331e+01 1.0918807784598782e+01 0 0 0
2086 209 6 0.0000000000000000e+00 -1.9070302354326481e+02 -5.1409089340432942e+01 2.9769427017150875e+01 0 0 0
2087 209 5 0.0000000000000000e+00 -1.8723802230404891e+02 -4.2279774512367432e+01 2.6331112052088315e+01 0 0 0
2081 209 4 0.0000000000000000e+00 -1.9883418470153231e+02 -4.4836851032881889e+01 3.7973739045408492e+00 0 0 0
2090 209 5 0.0000000000000000e+00 -2.0779034963835988e+02 -5.0171496913813201e+01 2.6988580052713939e+01 0 0 0
1321 133 4 0.0000000000000000e+00 -1.8324211027906168e+02 -2.9373663121228610e+01 2.5021121540547458e+01 0 0 0
1035 104 6 0.0000000000000000e+00 -1.7710235899395508e+02 -4.5040164935750049e+01 3.4715919522726587e+01 0 0 0
1036 104 6 0.0000000000000000e+00 -1.8701670754935063e+02 -4.6198171276632728e+01 3.6992456769371579e+01 0 0 0
3296 326 7 0.0000000000000000e+00 -1.9920357146279645e+02 -5.3807727038096417e+01 3.3807500611664395e+01 0 0 0
3297 326 8 0.0000000000000000e+00 -1.9897258431506552e+02 -4.4963189973345933e+01 2.9667845158806003e+01 0 0 0
381 39 1 0.0000000000000000e+00 -1.8543263648359735e+02 -3.6331537484971896e+01 5.0285799999999998e+00 0 0 0
800 80 3 0.0000000000000000e+00 -1.7344733330619309e+02 -3.2132923028929419e+01 2.9368830715378763e+01 0 0 0
1322 133 6 0.0000000000000000e+00 -1.8589073473620621e+02 -3.5104037463462973e+01 3.3804639560360066e+01 0 0 0
3298 326 8 0.0000000000000000e+00 -1.9518864318984524e+02 -3.7542008003082714e+01 3.3832754301438300e+01 0 0 0
385 39 2 0.0000000000000000e+00 -1.8713080407504938e+02 -2.4726967016246213e+01 1.0602221976828018e+01 0 0 0
1037 104 5 0.0000000000000000e+00 -1.9646850398630087e+02 -4.5737650650646223e+01 4.0826595735724744e+01 0 0 0
5451 439 8 0.0000000000000000e+00 -2.1310769122241044e+02 -6.1991249431783650e+01 3.9874909689015553e+01 0 0 0
4891 409 9 0.0000000000000000e+00 -1.7536685000966611e+02 -6.0920305514132608e+01 3.9490671315297540e+01 0 0 0
1323 133 6 0.0000000000000000e+00 -1.8106525202003607e+02 -3.2766583123068209e+01 4.2315773171421611e+01 0 0 0
3299 326 7 0.0000000000000000e+00 -1.9192638754066323e+02 -3.4884199734000546e+01 4.2777892968022407e+01 0 0 0
2080 208 5 0.0000000000000000e+00 -2.8411581227653028e+02 -1.9341817446343029e+02 7.2333176826863877e+01 0 0 0
2077 208 5 0.0000000000000000e+00 -2.6421182097049416e+02 -1.9268893390924327e+02 7.9165063591636908e+01 0 0 0
2079 208 6 0.0000000000000000e+00 -2.7893939789944102e+02 -2.0156608733507446e+02 7.3179527764038909e+01 0 0 0
2078 208 6 0.0000000000000000e+00 -2.7095512985534845e+02 -2.0002127852784167e+02 7.8421974217253236e+01 0 0 0
827 83 5 0.0000000000000000e+00 -2.9301678261308143e+02 -1.8202724433439198e+02 6.7867312564185539e+01 0 0 0
2076 208 6 0.0000000000000000e+00 -2.5914950834389646e+02 -2.0012068613224218e+02 8.3032343356666544e+01 0 0 0
826 83 6 0.0000000000000000e+00 -2.8615160252423027e+02 -1.8140152240075619e+02 6.0578334215310349e+01 0 0 0
821 83 4 0.0000000000000000e+00 -2.6824147911313145e+02 -1.6951666406476613e+02 4.2977909884373950e+01 0 0 0
823 83 6 0.0000000000000000e+00 -2.7891943375704665e+02 -1.6657591836801220e+02 4.5392833782300144e+01 0 0 0
825 83 6 0.0000000000000000e+00 -2.8737667716781954e+02 -1.7911129010372412e+02 5.0591341751537747e+01 0 0 0
824 83 5 0.0000000000000000e+00 -2.8144838049610865e+02 -1.7219022336758010e+02 5.3081163027864818e+01 0 0 0
1268 127 6 0.0000000000000000e+00 -2.8269507756379073e+02 -1.1083090014325812e+02 5.0401865003255232e+01 0 0 0
1270 127 5 0.0000000000000000e+00 -2.9064774091964233e+02 -1.0327476552638895e+02 6.3693229034223172e+01 0 0 0
1267 127 5 0.0000000000000000e+00 -2.7282274886049873e+02 -1.0985259501324138e+02 5.0880715930563760e+01 0 0 0
1269 127 6 0.0000000000000000e+00 -2.9095179108689814e+02 -1.0933847469683157e+02 5.5895701719714530e+01 0 0 0
4341 381 7 0.0000000000000000e+00 -2.7923112368793460e+02 -1.0707670489953176e+02 5.9454865392310353e+01 0 0 0
3935 359 7 0.0000000000000000e+00 -2.5191281544592397e+02 -1.0467570838649586e+02 4.6653936999841889e+01 0 0 0
3936 359 8 0.0000000000000000e+00 -2.5139887194444438e+02 -1.0759096535138958e+02 5.6889373438785462e+01 0 0 0
4357 381 8 0.0000000000000000e+00 -2.5841904271906998e+02 -7.0898902561853717e+01 4.4660538742902901e+01 0 0 0
4349 381 8 0.0000000000000000e+00 -2.7167957510472411e+02 -6.8753857233825116e+01 4.8830173935212564e+01 0 0 0
1266 127 6 0.0000000000000000e+00 -2.7264276045722801e+02 -9.9814573295869494e+01 4.8045596300835015e+01 0 0 0
2066 207 6 0.0000000000000000e+00 -2.6099072848994410e+02 -8.7824570007837067e+01 4.5580002572688876e+01 1 0 0
4348 381 8 0.0000000000000000e+00 -2.7282245486309216e+02 -7.7808721317812200e+01 5.2104773296834075e+01 0 0 0
1264 127 5 0.0000000000000000e+00 -2.7113926233743177e+02 -8.8575024703887664e+01 4.4390713362039094e+01 0 0 0
4342 381 8 0.0000000000000000e+00 -2.7699021800641202e+02 -9.7625688444334116e+01 6.0841846688842821e+01 0 0 0
4343 381 8 0.0000000000000000e+00 -2.7167713558536241e+02 -9.0924538708654822e+01 6.6148617426180948e+01 0 0 0
1265 127 6 0.0000000000000000e+00 -2.6779952244879536e+02 -9.2831065626519162e+01 5.2831715685425429e+01 0 0 0
4344 381 7 0.0000000000000000e+00 -2.7011967861223076e+02 -8.1597959282030942e+01 6.2433692248125418e+01 0 0 0
4347 381 7 0.0000000000000000e+00 -2.7651065896944118e+02 -8.7143242988185449e+01 5.2975084225371859e+01 0 0 0
4346 381 8 0.0000000000000000e+00 -2.8571119370388413e+02 -8.5321132544713237e+01 5.4375915667598157e+01 0 0 0
4345 381 8 0.0000000000000000e+00 -2.8020109463099635e+02 -8.0724725682232460e+01 6.0372622013122026e+01 0 0 0
4358 381 8 0.0000000000000000e+00 -2.6018999263329033e+02 -7.5581664907704521e+01 5.3651329898960888e+01 0 0 0
4218 374 8 0.0000000000000000e+00 -2.7867295886749923e+02 -6.7474167170809821e+01 5.7417986472977688e+01 0 0 0
4217 374 7 0.0000000000000000e+00 -2.8381129636848965e+02 -6.6366723155387191e+01 4.9357607427651452e+01 0 0 0
4219 374 8 0.0000000000000000e+00 -2.7004813216928761e+02 -6.3813138591329768e+01 6.1389992840344441e+01 0 0 0
3937 359 8 0.0000000000000000e+00 -2.4866179628427969e+02 -1.0103053180608781e+02 6.4317476950532040e+01 0 0 0
4359 381 9 0.0000000000000000e+00 -2.5498657986797826e+02 -7.8336207384840051e+01 6.1644856230427067e+01 0 0 0
5559 467 10 0.0000000000000000e+00 -2.5557252567422805e+02 -6.8805394727551956e+01 6.7128763457120627e+01 0 0 0
3931 359 8 0.0000000000000000e+00 -2.3702272988161874e+02 -9.2913361010942751e+01 4.6565120961388629e+01 0 0 0
2593 260 6 0.0000000000000000e+00 -2.1783067302292025e+02 -8.4796958413907689e+01 4.5872293789495799e+01 1 0 0
3939 359 8 0.0000000000000000e+00 -2.4739766238358746e+02 -8.9851607298292450e+01 7.7844119014143061e+01 0 0 0
3938 359 7 0.0000000000000000e+00 -2.4505527352980891e+02 -9.9099962382005316e+01 7.3370494166371188e+01 0 0 0
2596 260 6 0.0000000000000000e+00 -2.4202911357696945e+02 -7.3307333855511374e+01 4.5433360916688279e+01 1 0 0
2592 260 6 0.0000000000000000e+00 -2.2679690795644160e+02 -9.0151854326922091e+01 4.7010187865086756e+01 1 0 0
2597 260 5 0.0000000000000000e+00 -2.4976923673161653e+02 -6.8094070644630492e+01 4.9500351289197006e+01 1 0 0
3930 359 8 0.0000000000000000e+00 -2.3526575793478719e+02 -8.9176184878926549e+01 5.5473314152115741e+01 0 0 0
2067 207 5 0.0000000000000000e+00 -2.5447057236988073e+02 -9.4658149291910618e+01 4.5802689544958938e+01 1 0 0
3929 359 7 0.0000000000000000e+00 -2.2993003453182240e+02 -8.1015124398078001e+01 5.5257088925091985e+01 0 0 0
3928 359 8 0.0000000000000000e+00 -2.2524214060879555e+02 -7.3249192611360101e+01 5.1084004618338135e+01 0 0 0
1826 183 6 0.0000000000000000e+00 -2.3261260257571777e+02 -9.3555297284335410e+01 6.7514911359036660e+01 1 0 0
1825 183 6 0.0000000000000000e+00 -2.2319876439127736e+02 -9.3100254343957715e+01 6.1496381309421032e+01 1 0 0
1829 183 6 0.0000000000000000e+00 -2.4958874580609026e+02 -8.2535400511570828e+01 5.3086762728989058e+01 1 0 0
1828 183 6 0.0000000000000000e+00 -2.4585101575442030e+02 -8.8387794743620532e+01 5.9952353539085536e+01 1 0 0
1824 183 5 0.0000000000000000e+00 -2.1958767707754518e+02 -8.5160238986133564e+01 5.6565129610551288e+01 1 0 0
1827 183 5 0.0000000000000000e+00 -2.4061875531549805e+02 -8.9287533427071494e+01 6.7928448224241436e+01 1 0 0
980 98 5 0.0000000000000000e+00 -2.3541034268228941e+02 -7.2171389520052571e+01 6.0364362148514140e+01 0 0 0
1830 183 5 0.0000000000000000e+00 -2.4457573270787003e+02 -7.4545937776416068e+01 5.6172572364306966e+01 1 0 0
979 98 6 0.0000000000000000e+00 -2.2642006100078629e+02 -7.4178996115828909e+01 6.4940419280451692e+01 0 0 0
3940 359 8 0.0000000000000000e+00 -2.5113531881113155e+02 -8.2658491065846590e+01 7.1822696733992842e+01 0 0 0
3941 359 9 0.0000000000000000e+00 -2.4419351984239736e+02 -7.8894239870711715e+01 6.7651837611444932e+01 0 0 0
5561 467 10 0.0000000000000000e+00 -2.4295554761815777e+02 -6.8169940206064112e+01 6.5791713690897851e+01 0 0 0
978 98 6 0.0000000000000000e+00 -2.1976238721135570e+02 -6.9451973656075893e+01 5.9759250393161693e+01 0 0 0
3927 359 8 0.0000000000000000e+00 -2.2587912968056150e+02 -6.3732416337668262e+01 5.3685522409337224e+01 0 0 0
5457 439 8 0.0000000000000000e+00 -2.1349251498625608e+02 -6.4234993804425542e+01 7.4609583277290866e+01 0 0 0
1823 183 6 0.0000000000000000e+00 -2.1177951122749744e+02 -7.9397137623710719e+01 5.5671052011732918e+01 1 0 0
420 42 3 0.0000000000000000e+00 -2.0359210610674458e+02 -9.2490094834281052e+01 4.5323169647819988e+01 1 0 0
4873 409 7 0.0000000000000000e+00 -2.0866315300681620e+02 -7.0401917192022111e+01 5.3201162732235581e+01 0 0 0
4874 409 8 0.0000000000000000e+00 -2.0980923548423388e+02 -7.1974348033016341e+01 4.3347739430350110e+01 0 0 0
1822 183 6 0.0000000000000000e+00 -2.0804958320194700e+02 -8.1742625918711710e+01 4.6472076970887350e+01 1 0 0
1821 183 4 0.0000000000000000e+00 -2.0007765413267185e+02 -8.5014890558809682e+01 5.2073564163288388e+01 1 0 0
5458 439 7 0.0000000000000000e+00 -2.0933038142225112e+02 -6.8386830659033009e+01 6.6847203687690168e+01 0 0 0
5459 439 8 0.0000000000000000e+00 -2.0069578578216482e+02 -7.0859901099765665e+01 7.0805573090557090e+01 0 0 0
5646 496 10 0.0000000000000000e+00 -1.7853890428553868e+02 -7.0831370076689723e+01 8.0628179617594881e+01 1 0 0
5460 439 8 0.0000000000000000e+00 -1.9286571469145588e+02 -7.2010248269669674e+01 7.6418973968288739e+01 0 0 0
5648 496 10 0.0000000000000000e+00 -1.7945273058102242e+02 -8.0860531156428266e+01 7.8658599492624617e+01 1 0 0
5461 439 9 0.0000000000000000e+00 -1.8887809247823375e+02 -7.2812665710781289e+01 8.5250170362115384e+01 0 0 0
3780 351 7 0.0000000000000000e+00 -2.7410008107779134e+02 -2.7024439342494762e+01 4.6200151124677454e+01 0 0 0
4350 381 7 0.0000000000000000e+00 -2.7376405638637937e+02 -6.1845654369061293e+01 4.2870981031957442e+01 0 0 0
4213 374 8 0.0000000000000000e+00 -2.9226657508128852e+02 -5.8250809352978202e+01 7.0680894790120973e+01 0 0 0
4212 374 8 0.0000000000000000e+00 -2.8590590880989873e+02 -5.3417786151429411e+01 6.4633603237010789e+01 0 0 0
4220 374 7 0.0000000000000000e+00 -2.6646084750882778e+02 -5.6929395087618232e+01 6.7382340318977370e+01 0 0 0
4216 374 8 0.0000000000000000e+00 -2.8515061130071734e+02 -5.8624916464406951e+01 5.5608517112120730e+01 0 0 0
2600 260 5 0.0000000000000000e+00 -2.6514113753679356e+02 -5.9155463048647029e+01 4.9289283546094879e+01 1 0 0
4208 374 7 0.0000000000000000e+00 -2.6813026038472083e+02 -3.5378086911869765e+01 4.5747513166998822e+01 0 0 0