LAMMPS data file via write_data, version 5 Jun 2019, timestep = 400000000

5660 atoms
11 atom types
5933 bonds
7 bond types
4660 angles
4 angle types

-3.0000000000000000e+02 3.0000000000000000e+02 xlo xhi
-3.0000000000000000e+02 3.0000000000000000e+02 ylo yhi
0.0000000000000000e+00 3.0000000000000000e+02 zlo zhi

Masses

1 1000
2 450
3 450
4 11000
5 7000
6 450
7 450
8 450
9 450
10 450
11 20000

Pair Coeffs # lj/cut

1 0.24 10
2 0.24 10
3 0.24 10
4 0.24 10
5 0.24 10
6 0.24 10
7 0.24 10
8 0.24 10
9 0.24 10
10 0.24 10
11 0.24 30

Angle Coeffs # cosine

1 1
2 1
3 1
4 1

Atoms # full

791 80 1 0.0000000000000000e+00 -2.6547871086312955e+02 -1.0746755900179795e+02 5.0286200000000001e+00 0 0 0
3892 357 8 0.0000000000000000e+00 -2.6850255798176556e+02 -1.0817415864762509e+02 3.3169761788960670e+01 1 0 0
3896 357 8 0.0000000000000000e+00 -2.5354965248296722e+02 -1.1082498884820846e+02 3.4930305242946538e+01 1 0 0
3895 357 8 0.0000000000000000e+00 -2.5382747852777698e+02 -1.1429699928143994e+02 2.6552216402874791e+01 1 0 0
2592 260 6 0.0000000000000000e+00 -2.3042934920400830e+02 -1.0717482228106694e+02 4.1129419646334995e+01 1 0 0
829 83 6 0.0000000000000000e+00 -2.2089004643353627e+02 -1.2000582789423250e+02 2.9854855479876747e+01 0 0 0
1858 186 6 0.0000000000000000e+00 -2.5961143811825985e+02 -1.0538777355539166e+02 4.0416064559116784e+01 1 0 0
3893 357 8 0.0000000000000000e+00 -2.6009271129867204e+02 -1.0399090480248245e+02 3.0164302297011893e+01 1 0 0
2599 260 6 0.0000000000000000e+00 -2.7023273497686557e+02 -1.0261082656554484e+02 2.1835892696479039e+01 1 0 0
2598 260 6 0.0000000000000000e+00 -2.7923898673109699e+02 -9.8202819663007119e+01 2.5582259560248080e+01 1 0 0
2597 260 5 0.0000000000000000e+00 -2.6996751205380207e+02 -9.5195825158742892e+01 2.9029515481384593e+01 1 0 0
971 98 4 0.0000000000000000e+00 -2.6947878324331225e+02 -7.5304717577756165e+01 3.2277701809744407e+01 0 0 0
792 80 2 0.0000000000000000e+00 -2.6529714236053911e+02 -9.7532770249841960e+01 7.1821682542146448e+00 0 0 0
972 98 6 0.0000000000000000e+00 -2.7516124413617609e+02 -8.0400115284362897e+01 3.9000209373681564e+01 0 0 0
793 80 2 0.0000000000000000e+00 -2.6448657473455239e+02 -8.7835828822193449e+01 7.5072111545827855e+00 0 0 0
794 80 3 0.0000000000000000e+00 -2.6234535649899124e+02 -7.8859290314916009e+01 1.1967451108242699e+01 0 0 0
977 98 5 0.0000000000000000e+00 -2.9227021972587931e+02 -7.3820357911660793e+01 3.5062066297733736e+01 0 0 0
795 80 2 0.0000000000000000e+00 -2.6530122340912681e+02 -6.9698171534289628e+01 1.5142692266872528e+01 0 0 0
3891 357 7 0.0000000000000000e+00 -2.7494820289478804e+02 -1.0106063155269570e+02 3.6890290434206690e+01 1 0 0
2596 260 6 0.0000000000000000e+00 -2.5987182718208999e+02 -9.3182612768498430e+01 2.9855748712291113e+01 1 0 0
796 80 2 0.0000000000000000e+00 -2.7086687242419805e+02 -6.9559704331665770e+01 2.3877129704697673e+01 0 0 0
2600 260 5 0.0000000000000000e+00 -2.6247635410787751e+02 -9.9781376681196363e+01 1.5778396693903357e+01 1 0 0
797 80 3 0.0000000000000000e+00 -2.7869747088214996e+02 -7.5602654413537607e+01 2.5739716633235858e+01 0 0 0
980 98 5 0.0000000000000000e+00 -2.7955255260169963e+02 -6.9569247803682487e+01 3.7958071077839030e+01 0 0 0
976 98 6 0.0000000000000000e+00 -2.9900939902060293e+02 -6.9748483296970733e+01 4.0674050710933045e+01 0 0 0
3262 324 8 0.0000000000000000e+00 -2.6087181668672991e+02 -7.2329136262062036e+01 3.8412319882176881e+01 0 0 0
3887 357 8 0.0000000000000000e+00 -2.6062459917597477e+02 -8.3994181697606578e+01 4.0266862254105185e+01 1 0 0
3894 357 7 0.0000000000000000e+00 -2.5459879869324271e+02 -1.0598338800332418e+02 2.1467428174728834e+01 1 0 0
576 58 2 0.0000000000000000e+00 -2.3389824893875826e+02 -9.4933639179495202e+01 2.6601583517532738e+01 0 0 0
577 58 3 0.0000000000000000e+00 -2.2441119083682270e+02 -9.2182808664038419e+01 2.7610813819409064e+01 0 0 0
2595 260 6 0.0000000000000000e+00 -2.5044510415562701e+02 -9.1330770541789548e+01 2.9231113560655611e+01 1 0 0
2591 260 4 0.0000000000000000e+00 -2.2746610465688943e+02 -1.0108143245050083e+02 3.3871230880447222e+01 1 0 0
573 58 2 0.0000000000000000e+00 -2.4939645481316819e+02 -8.4500755996760162e+01 1.7082314692992401e+01 0 0 0
2594 260 5 0.0000000000000000e+00 -2.4620235743739724e+02 -9.9146555993799623e+01 3.4113216745173332e+01 1 0 0
575 58 2 0.0000000000000000e+00 -2.4078627035859000e+02 -1.0026142068544594e+02 2.2037517645039088e+01 0 0 0
574 58 3 0.0000000000000000e+00 -2.4471495989822506e+02 -9.3374041893361394e+01 1.5738631090878677e+01 0 0 0
2593 260 6 0.0000000000000000e+00 -2.3930118710345147e+02 -1.0527571518275984e+02 3.7482404247278893e+01 1 0 0
1011 102 4 0.0000000000000000e+00 -2.4013892591057495e+02 -8.4155514947490090e+01 1.9064673090632084e+01 1 0 0
3885 357 7 0.0000000000000000e+00 -2.4195304862143107e+02 -8.9481412826827466e+01 3.8596271525504477e+01 1 0 0
1012 102 6 0.0000000000000000e+00 -2.3347731552489509e+02 -8.0795722090312211e+01 1.1694642304222127e+01 1 0 0
572 58 2 0.0000000000000000e+00 -2.4461559119323420e+02 -7.6518708962045693e+01 1.3437086411279573e+01 0 0 0
571 58 1 0.0000000000000000e+00 -2.3951016979296543e+02 -7.5427305074304869e+01 5.0072700000000001e+00 0 0 0
1013 102 6 0.0000000000000000e+00 -2.2887652036093922e+02 -7.2464819578553815e+01 1.5172566854131601e+01 1 0 0
1859 186 6 0.0000000000000000e+00 -2.5592832593321324e+02 -9.6030707381396709e+01 4.1373631890104896e+01 1 0 0
3886 357 8 0.0000000000000000e+00 -2.5118158049074870e+02 -8.6860449180399343e+01 4.0657217821598692e+01 1 0 0
578 58 2 0.0000000000000000e+00 -2.1808104343097943e+02 -9.6813557754810830e+01 3.4016815241237268e+01 0 0 0
798 80 2 0.0000000000000000e+00 -2.8432476790567318e+02 -6.7516014980172812e+01 2.7597655263228766e+01 0 0 0
978 98 6 0.0000000000000000e+00 -2.9409967426832321e+02 -6.4520028951236284e+01 3.2184812762127308e+01 0 0 0
979 98 6 0.0000000000000000e+00 -2.8619896743834573e+02 -6.3088920876490619e+01 3.8790665139735246e+01 0 0 0
1827 183 5 0.0000000000000000e+00 -2.8039604184099954e+02 -4.6608199536141981e+01 2.0276315101938486e+01 1 0 0
751 76 1 0.0000000000000000e+00 -2.7763059694836960e+02 -3.6566653584202292e+01 6.8810700000000002e+00 0 0 0
3259 324 8 0.0000000000000000e+00 -2.7110681794070484e+02 -4.8970350552182317e+01 2.8873014480610344e+01 0 0 0
3258 324 7 0.0000000000000000e+00 -2.8127077645015135e+02 -4.7305577902187032e+01 3.0221284011897822e+01 0 0 0
3260 324 8 0.0000000000000000e+00 -2.6875175831140825e+02 -5.5963739247615294e+01 3.5628162774784037e+01 0 0 0
1828 183 6 0.0000000000000000e+00 -2.8315026100040404e+02 -3.9127428038365125e+01 2.5727775456378623e+01 1 0 0
1826 183 6 0.0000000000000000e+00 -2.7380667139061779e+02 -5.3911437150663517e+01 1.7830698105632617e+01 1 0 0
4340 380 9 0.0000000000000000e+00 -2.7502292743707966e+02 -3.6661578892317955e+01 3.0225481432435963e+01 1 0 0
1829 183 6 0.0000000000000000e+00 -2.8823595771902916e+02 -3.2314260610112576e+01 3.0430545600606610e+01 1 0 0
799 80 2 0.0000000000000000e+00 -2.8584707158623269e+02 -5.9505170151302586e+01 2.1953842597550107e+01 0 0 0
800 80 3 0.0000000000000000e+00 -2.8994310492227493e+02 -5.2167303100656085e+01 1.7131334462868523e+01 0 0 0
753 76 2 0.0000000000000000e+00 -2.9621357326339404e+02 -3.9400411888797400e+01 1.2997331677493289e+01 0 0 0
752 76 2 0.0000000000000000e+00 -2.8692091004628463e+02 -3.7458902937437941e+01 9.4629263573434113e+00 0 0 0
1968 197 6 0.0000000000000000e+00 -2.8719443755338295e+02 -3.8265131971653844e+01 3.8600882001864967e+01 0 0 0
4339 380 8 0.0000000000000000e+00 -2.7489724854816160e+02 -4.2006813500914689e+01 3.8755568041272731e+01 1 0 0
1825 183 6 0.0000000000000000e+00 -2.6784781808384207e+02 -4.6289498129830072e+01 1.9015087050929374e+01 1 0 0
1824 183 5 0.0000000000000000e+00 -2.6531821060118210e+02 -3.7282041250452188e+01 2.2412889582499812e+01 1 0 0
3261 324 7 0.0000000000000000e+00 -2.6727911825444653e+02 -6.5171591335758109e+01 3.6514494509441846e+01 0 0 0
5578 473 11 0.0000000000000000e+00 -2.6958897078404289e+02 -3.0797570950458034e+01 3.9216380141320450e+01 0 0 0
5577 473 10 0.0000000000000000e+00 -2.7983232846989426e+02 -3.1227404402331089e+01 3.8662368587542460e+01 0 0 0
3268 324 8 0.0000000000000000e+00 -2.6095194007929729e+02 -5.2457885150123026e+01 4.2193065804185913e+01 0 0 0
760 76 3 0.0000000000000000e+00 -2.9501232558373965e+02 -4.6536972449772399e+01 3.7747631109936968e+01 0 0 0
3266 324 8 0.0000000000000000e+00 -2.7658105324351976e+02 -5.5211088478490154e+01 4.0740197901530159e+01 0 0 0
1969 197 6 0.0000000000000000e+00 -2.9186205177299860e+02 -2.9692901965941363e+01 4.0174941455262449e+01 0 0 0
754 76 3 0.0000000000000000e+00 -2.9976026792395027e+02 -4.0519463508561934e+01 2.2335160143030315e+01 0 0 0
1014 102 5 0.0000000000000000e+00 -2.3037563180726480e+02 -6.5602090610928158e+01 2.2754465453306352e+01 1 0 0
1017 102 5 0.0000000000000000e+00 -2.2963020130007249e+02 -4.8171414996405296e+01 1.3617771980199777e+01 1 0 0
1020 102 5 0.0000000000000000e+00 -2.4190795170173021e+02 -3.8119261004025212e+01 3.2560144676706628e+01 1 0 0
1018 102 6 0.0000000000000000e+00 -2.3822271268822143e+02 -5.0011361488559963e+01 1.8150384215529385e+01 1 0 0
1015 102 6 0.0000000000000000e+00 -2.3336912582083920e+02 -5.9432163718270935e+01 1.4483085591477998e+01 1 0 0
1019 102 6 0.0000000000000000e+00 -2.4295016546707762e+02 -4.2968170491750008e+01 2.3090810217496784e+01 1 0 0
1016 102 6 0.0000000000000000e+00 -2.2684679914050486e+02 -5.6072135491058106e+01 7.6654789073593346e+00 1 0 0
3424 332 8 0.0000000000000000e+00 -2.1973396093286814e+02 -3.9394424122644573e+01 9.9159038058168818e+00 0 0 0
3423 332 8 0.0000000000000000e+00 -2.1908226937380826e+02 -3.0433615182570975e+01 1.5006252467178651e+01 0 0 0
2761 277 4 0.0000000000000000e+00 -2.3741244928162635e+02 -3.4889777145026990e+01 1.9041281405716205e+01 0 0 0
2762 277 6 0.0000000000000000e+00 -2.4299489228007621e+02 -3.0524265958777740e+01 2.5725743326589907e+01 0 0 0
3273 324 7 0.0000000000000000e+00 -2.2529491278538859e+02 -3.5088150780040806e+01 3.5740015943684234e+01 0 0 0
3270 324 7 0.0000000000000000e+00 -2.5045207942288224e+02 -3.9424045460339123e+01 4.2515084645456156e+01 0 0 0
5027 417 8 0.0000000000000000e+00 -2.3030559569089306e+02 -4.5949302029182547e+01 3.9384590594499471e+01 0 0 0
2763 277 6 0.0000000000000000e+00 -2.5070106662809252e+02 -3.2401250979341441e+01 3.0928086895336069e+01 0 0 0
3269 324 8 0.0000000000000000e+00 -2.5837402181808920e+02 -4.4137146726680641e+01 3.8685129046748600e+01 0 0 0
1719 172 6 0.0000000000000000e+00 -2.1908150485605293e+02 -4.3360358746792862e+01 4.0625022620939390e+01 0 0 0
3425 332 7 0.0000000000000000e+00 -2.2184243253830300e+02 -4.7914504562051626e+01 6.0221113296585518e+00 0 0 0
3419 332 7 0.0000000000000000e+00 -2.3521581421279592e+02 -2.9278212192233482e+01 3.1566156831948891e+01 0 0 0
5026 417 8 0.0000000000000000e+00 -2.3978165968716314e+02 -4.8772985549580689e+01 3.9230125792986442e+01 0 0 0
5025 417 7 0.0000000000000000e+00 -2.3342916612323626e+02 -5.6289116809807140e+01 4.1208350809491364e+01 0 0 0
1823 183 6 0.0000000000000000e+00 -2.6511294012863345e+02 -2.8824673833745262e+01 2.8032453399836839e+01 1 0 0
2836 284 6 0.0000000000000000e+00 -2.8337616870140954e+02 -2.2871307013073462e+01 1.3475388360691340e+01 1 0 0
2835 284 6 0.0000000000000000e+00 -2.9323234841447146e+02 -2.3623727060022080e+01 1.6433982551492299e+01 1 0 0
2838 284 6 0.0000000000000000e+00 -2.6430917886017289e+02 -2.3346844928843563e+01 1.8373271006934814e+01 1 0 0
2837 284 5 0.0000000000000000e+00 -2.7455601334694660e+02 -2.2721570041592827e+01 1.8886829608556226e+01 1 0 0
2411 242 4 0.0000000000000000e+00 -2.7904532755544511e+02 -1.1130469338952345e+01 1.1290769110113212e+01 0 0 0
594 60 3 0.0000000000000000e+00 -2.7977267087035756e+02 -2.7515125935356910e-01 1.0256037776199857e+01 1 0 0
595 60 2 0.0000000000000000e+00 -2.7724902638061161e+02 1.1788558783358023e+00 2.0917272552711268e+01 1 0 0
596 60 2 0.0000000000000000e+00 -2.7050266181661880e+02 2.4786944496902561e+00 2.8301305986149782e+01 1 0 0
2412 242 6 0.0000000000000000e+00 -2.7052701373502777e+02 -1.3705884811152409e+01 1.4706028732024858e+01 0 0 0
597 60 3 0.0000000000000000e+00 -2.6554965271120960e+02 -1.4460659586496694e+00 3.5912812651783653e+01 1 0 0
2413 242 6 0.0000000000000000e+00 -2.7134942194291244e+02 -7.1248593054860727e+00 2.2132120320175837e+01 0 0 0
1830 183 5 0.0000000000000000e+00 -2.8750797428712434e+02 -2.2440377065176875e+01 2.8899642741445206e+01 1 0 0
4347 381 7 0.0000000000000000e+00 -2.8459834778765133e+02 -1.2153558624432868e+01 2.9748132778019443e+01 0 0 0
2414 242 5 0.0000000000000000e+00 -2.6180594453949243e+02 -4.4505889773140330e+00 2.2477650375444419e+01 0 0 0
4348 381 8 0.0000000000000000e+00 -2.7652250473515795e+02 -1.7814938767916981e+01 3.1737310602652546e+01 0 0 0
593 60 2 0.0000000000000000e+00 -2.7044053413030878e+02 -3.6394766051034675e+00 9.9149428778838011e+00 1 0 0
1821 183 4 0.0000000000000000e+00 -2.6118090793386421e+02 -1.1418035739599103e+01 3.4182984133590033e+01 1 0 0
1970 197 5 0.0000000000000000e+00 -2.9574138552701822e+02 -2.1395727838795413e+01 3.8020366178417909e+01 0 0 0
4349 381 8 0.0000000000000000e+00 -2.7566431736422487e+02 -1.6838717159328311e+01 4.1940412953079814e+01 0 0 0
1822 183 6 0.0000000000000000e+00 -2.6392424379205346e+02 -1.8524079511806370e+01 2.7643720480704140e+01 1 0 0
4346 381 8 0.0000000000000000e+00 -2.9391810052155762e+02 -1.3225466181531116e+01 3.2063943907898405e+01 0 0 0
3026 303 6 0.0000000000000000e+00 -2.7260726873995918e+02 5.0605948051886696e-01 4.0828932144783828e+01 0 0 0
592 60 2 0.0000000000000000e+00 -2.6136167362717890e+02 -6.3439600933691196e+00 7.7484712549604540e+00 1 0 0
3027 303 5 0.0000000000000000e+00 -2.7754438838055120e+02 9.1563333785093466e+00 4.0094449542761971e+01 0 0 0
598 60 2 0.0000000000000000e+00 -2.5636380472202137e+02 -3.9721552084282413e-01 3.6911120232429944e+01 1 0 0
1755 176 6 0.0000000000000000e+00 -2.2018888714656606e+02 7.3139174184793081e+00 2.8356628377530889e+01 0 0 0
3422 332 7 0.0000000000000000e+00 -2.2379737972180848e+02 -2.7136570660834135e+01 2.2983329063380626e+01 0 0 0
3418 332 8 0.0000000000000000e+00 -2.4238887526045553e+02 -2.7413443615004759e+01 3.8271846522369223e+01 0 0 0
2839 284 6 0.0000000000000000e+00 -2.5588085788426844e+02 -1.8377908674877826e+01 2.1056332711901135e+01 1 0 0
3420 332 8 0.0000000000000000e+00 -2.3274453320342485e+02 -1.9907754322639338e+01 3.0981174468423784e+01 0 0 0
591 60 1 0.0000000000000000e+00 -2.5205104176765880e+02 -8.1928515219717646e+00 5.1971699999999998e+00 1 0 0
2415 242 6 0.0000000000000000e+00 -2.5377965849357344e+02 -4.4654430728501708e+00 2.8865786254240859e+01 0 0 0
2840 284 5 0.0000000000000000e+00 -2.4956850466072669e+02 -2.1544912077095336e+01 2.7711129906326992e+01 1 0 0
2416 242 6 0.0000000000000000e+00 -2.4456305285839935e+02 -6.3025035709340687e+00 3.2265774662035568e+01 0 0 0
2417 242 5 0.0000000000000000e+00 -2.3915960681734447e+02 -5.1340571920090188e+00 4.0641614763400646e+01 0 0 0
3417 332 8 0.0000000000000000e+00 -2.4011376423856507e+02 -1.7778951545183503e+01 4.0810233948016112e+01 0 0 0
1760 176 5 0.0000000000000000e+00 -2.2948429946140044e+02 5.2275416903047303e+00 3.3713398798732804e+01 0 0 0
3421 332 8 0.0000000000000000e+00 -2.2261941847959210e+02 -2.1741534221102995e+01 3.1765333796120782e+01 0 0 0
2764 277 5 0.0000000000000000e+00 -2.5296840724180862e+02 -2.8308029690608954e+01 3.9836514068299870e+01 0 0 0
762 77 2 0.0000000000000000e+00 -2.1937685621896145e+02 5.1583672285656714e+00 1.1555855017060704e+01 0 0 0
2084 209 5 0.0000000000000000e+00 -2.2239923170145647e+02 -2.6359324402193181e+01 4.0879595327522082e+01 0 0 0
763 77 2 0.0000000000000000e+00 -2.2056141617697665e+02 1.2032151246287137e+00 2.0808590737579660e+01 0 0 0
3415 332 8 0.0000000000000000e+00 -2.2816832130728858e+02 -7.2303253895183417e+00 4.1411531821723905e+01 0 0 0
5359 434 8 0.0000000000000000e+00 -2.8530068164572714e+02 2.0788536840935194e+01 3.5117529341341026e+01 0 0 0
5360 434 7 0.0000000000000000e+00 -2.7719141404425648e+02 2.6615508672122342e+01 3.4218191915057197e+01 0 0 0
5357 434 7 0.0000000000000000e+00 -2.9530647737401961e+02 3.4738644149900104e+01 3.1427806179582021e+01 0 0 0
5356 434 8 0.0000000000000000e+00 -2.8875545195651085e+02 4.2925594372477541e+01 3.1435424666350272e+01 0 0 0
5362 434 8 0.0000000000000000e+00 -2.7135600335111548e+02 4.1625327766657705e+01 2.7056101034787037e+01 0 0 0
5361 434 8 0.0000000000000000e+00 -2.7853027970098213e+02 3.5568883993531330e+01 3.0349605822609838e+01 0 0 0
5363 434 7 0.0000000000000000e+00 -2.6750639143279523e+02 4.0908488716537008e+01 3.6247133897811537e+01 0 0 0
5358 434 8 0.0000000000000000e+00 -2.8981582632627072e+02 2.6585226117508228e+01 2.8476369281637915e+01 0 0 0
1275 128 6 0.0000000000000000e+00 -2.5981878990880995e+02 4.6869064477371388e+01 3.0379942015689153e+01 0 0 0
5355 434 8 0.0000000000000000e+00 -2.7948694678354855e+02 4.7024545558253678e+01 3.1551192382319869e+01 0 0 0
1274 128 5 0.0000000000000000e+00 -2.5704290478548626e+02 3.7507136916856147e+01 3.2243546525897642e+01 0 0 0
1273 128 6 0.0000000000000000e+00 -2.5740871908343576e+02 2.7089132816202955e+01 3.0380737297468663e+01 0 0 0
1276 128 6 0.0000000000000000e+00 -2.4976502334569986e+02 4.4587161666716241e+01 2.8804953204166569e+01 0 0 0
1272 128 6 0.0000000000000000e+00 -2.5746696111257290e+02 1.7147882069275841e+01 3.3721673658150742e+01 0 0 0
3809 353 7 0.0000000000000000e+00 -2.2364039182899765e+02 3.2942914978269528e+01 2.7139126158493180e+01 0 0 0
199 20 2 0.0000000000000000e+00 -2.3154805312446513e+02 2.3125365181041957e+01 2.7489670361842876e+01 0 0 0
1752 176 6 0.0000000000000000e+00 -2.1804124182900333e+02 2.3496720776292985e+01 1.0624026316073834e+01 0 0 0
198 20 2 0.0000000000000000e+00 -2.3676812487299847e+02 2.3356346826752898e+01 1.9057764205987766e+01 0 0 0
200 20 3 0.0000000000000000e+00 -2.3733184062757374e+02 2.2285047339398876e+01 3.5516894720328061e+01 0 0 0
197 20 3 0.0000000000000000e+00 -2.3438097651871936e+02 1.7078970723957962e+01 1.1120986981251688e+01 0 0 0
195 20 2 0.0000000000000000e+00 -2.3162760862051130e+02 3.2977090849481918e+01 6.6549906696320855e+00 0 0 0
196 20 2 0.0000000000000000e+00 -2.3185092275543835e+02 2.3262966666730268e+01 3.8173914743802788e+00 0 0 0
2467 247 5 0.0000000000000000e+00 -2.2701008917972314e+02 3.2215570913039294e+01 1.7055232460426939e+01 0 0 0
2466 247 6 0.0000000000000000e+00 -2.3514718271986368e+02 3.3911169219504579e+01 2.2621250320430871e+01 0 0 0
2465 247 6 0.0000000000000000e+00 -2.3872997435502012e+02 4.3242726073140993e+01 2.4892554433489895e+01 0 0 0
1759 176 6 0.0000000000000000e+00 -2.2592653254152069e+02 1.3770278123458619e+01 3.7093006086890611e+01 0 0 0
1277 128 5 0.0000000000000000e+00 -2.5057076019483148e+02 4.2137909563149812e+01 3.8566533351761983e+01 0 0 0
1271 128 4 0.0000000000000000e+00 -2.4813635825278681e+02 1.9017254023253688e+01 3.6930413678405031e+01 0 0 0
1278 128 6 0.0000000000000000e+00 -2.4176351976226397e+02 3.9938544776515272e+01 3.4460008954081573e+01 0 0 0
3810 353 8 0.0000000000000000e+00 -2.2704248115296369e+02 4.1421279816264388e+01 3.1215256615017324e+01 0 0 0
194 20 3 0.0000000000000000e+00 -2.2950752279174137e+02 4.1647114919733042e+01 1.0886359002511270e+01 0 0 0
1753 176 6 0.0000000000000000e+00 -2.2300825663210810e+02 1.6836929339702611e+01 1.5734530819536472e+01 0 0 0
2468 247 6 0.0000000000000000e+00 -2.2308350325577379e+02 4.1335972988500870e+01 2.0189270373431743e+01 0 0 0
191 20 1 0.0000000000000000e+00 -2.3832682791250858e+02 4.3074156690606827e+01 5.0072700000000001e+00 0 0 0
1751 176 4 0.0000000000000000e+00 -2.1834688890505444e+02 3.2840516109498310e+01 7.2131401401014710e+00 0 0 0
1757 176 5 0.0000000000000000e+00 -2.1839388485116498e+02 2.3274363816938401e+01 3.6987958266707778e+01 0 0 0
1279 128 6 0.0000000000000000e+00 -2.3663489992460870e+02 3.5699452894635627e+01 4.1387225965977969e+01 0 0 0
192 20 2 0.0000000000000000e+00 -2.4102142932267020e+02 4.2679060795854042e+01 1.4616134126948090e+01 0 0 0
3980 362 7 0.0000000000000000e+00 -2.5160253559942305e+02 3.0979216221727498e+01 3.8760602135380736e+01 0 0 0
1758 176 6 0.0000000000000000e+00 -2.2763519354045363e+02 2.2723293212597309e+01 4.0197346577078008e+01 0 0 0
3903 357 9 0.0000000000000000e+00 -2.7348470652533683e+02 -1.2332238340126740e+02 6.0622599790503202e+01 1 0 0
3902 357 8 0.0000000000000000e+00 -2.7361947756795973e+02 -1.1513397916286026e+02 5.4780320828416194e+01 1 0 0
3901 357 8 0.0000000000000000e+00 -2.6738488686442849e+02 -1.0763507714543820e+02 5.7402503004874752e+01 1 0 0
3897 357 7 0.0000000000000000e+00 -2.4981501785461802e+02 -1.1061237086381342e+02 4.4167793355140070e+01 1 0 0
3898 357 8 0.0000000000000000e+00 -2.4601264932778494e+02 -1.0810677902148907e+02 5.2722908901203859e+01 1 0 0
3890 357 8 0.0000000000000000e+00 -2.8126754032842547e+02 -9.9439167904052724e+01 4.3933918854092369e+01 1 0 0
3900 357 7 0.0000000000000000e+00 -2.5920503157467226e+02 -1.0486232265392550e+02 6.2351314727395490e+01 1 0 0
3888 357 7 0.0000000000000000e+00 -2.6754306359751865e+02 -8.7797652876495320e+01 4.6906394286843373e+01 1 0 0
3889 357 8 0.0000000000000000e+00 -2.7731385802226998e+02 -9.1400670325602135e+01 4.7938574992223757e+01 1 0 0
973 98 6 0.0000000000000000e+00 -2.7606172157286909e+02 -7.5692176133480189e+01 4.7147026779145520e+01 0 0 0
975 98 6 0.0000000000000000e+00 -2.9113829496442725e+02 -7.0290363463983979e+01 4.7463460015077203e+01 0 0 0
974 98 5 0.0000000000000000e+00 -2.8326349250798029e+02 -7.2124380163547968e+01 5.3205491649765705e+01 0 0 0
1854 186 5 0.0000000000000000e+00 -2.6563261472805272e+02 -7.8475756406420857e+01 5.2982398270936471e+01 1 0 0
1855 186 6 0.0000000000000000e+00 -2.5872458936604062e+02 -8.4949549728108238e+01 5.1555935391800887e+01 1 0 0
1857 186 5 0.0000000000000000e+00 -2.5906574742803537e+02 -1.0512747287410443e+02 5.0277109323806748e+01 1 0 0
3264 324 7 0.0000000000000000e+00 -2.7234833839491301e+02 -6.8952207626153680e+01 5.4172539874520666e+01 0 0 0
1856 186 6 0.0000000000000000e+00 -2.5966163607789406e+02 -9.5223702362907844e+01 5.1819590269576743e+01 1 0 0
3263 324 8 0.0000000000000000e+00 -2.6706830692075647e+02 -7.0041125104813034e+01 4.6135518066605158e+01 0 0 0
1853 186 6 0.0000000000000000e+00 -2.5813919389645633e+02 -7.4865203019247204e+01 5.7934119838289661e+01 1 0 0
3899 357 8 0.0000000000000000e+00 -2.5256614238731981e+02 -1.0169896978542928e+02 5.5703367543023674e+01 1 0 0
1852 186 6 0.0000000000000000e+00 -2.5634879363252389e+02 -6.8970860549726282e+01 6.5570792742896131e+01 1 0 0
3399 331 8 0.0000000000000000e+00 -2.4852926345698356e+02 -8.0998873689086011e+01 6.1429595764898608e+01 0 0 0
3400 331 7 0.0000000000000000e+00 -2.4442035911140681e+02 -7.4703979749085775e+01 5.4991272968202189e+01 0 0 0
3395 331 8 0.0000000000000000e+00 -2.3558295784219550e+02 -1.0350075674228343e+02 5.2754877877632545e+01 0 0 0
1860 186 5 0.0000000000000000e+00 -2.4816290793475798e+02 -1.0066032301898612e+02 4.4988863496341438e+01 1 0 0
3396 331 8 0.0000000000000000e+00 -2.4364193753011307e+02 -9.8305200135034795e+01 5.4880625893379303e+01 0 0 0
3397 331 7 0.0000000000000000e+00 -2.5081610622658948e+02 -9.2660789964932363e+01 5.8108538585250969e+01 0 0 0
3398 331 8 0.0000000000000000e+00 -2.4635136173363676e+02 -8.8961768370853321e+01 6.6075993328958234e+01 0 0 0
3394 331 7 0.0000000000000000e+00 -2.2847965203942846e+02 -9.8307050542597111e+01 5.7458466558675134e+01 0 0 0
3393 331 8 0.0000000000000000e+00 -2.2199393158094324e+02 -1.0511804327975695e+02 5.3815889548614699e+01 0 0 0
3392 331 8 0.0000000000000000e+00 -2.1827533714702739e+02 -9.8573212041416170e+01 4.6577238095115575e+01 0 0 0
5579 473 10 0.0000000000000000e+00 -2.6436814072336949e+02 -3.7745503235970915e+01 4.3951988688839513e+01 0 0 0
1851 186 4 0.0000000000000000e+00 -2.6237196105713815e+02 -6.6587661171242189e+01 7.3162717317469870e+01 1 0 0
942 95 6 0.0000000000000000e+00 -2.8851170852695878e+02 -5.0089115077979294e+01 4.6220398566652449e+01 0 0 0
3267 324 7 0.0000000000000000e+00 -2.6953907526717876e+02 -5.1605847484564485e+01 4.6704048973115626e+01 0 0 0
943 95 6 0.0000000000000000e+00 -2.8039439481956452e+02 -4.5454572156995418e+01 4.7849438544777534e+01 0 0 0
3265 324 8 0.0000000000000000e+00 -2.7316274101274388e+02 -6.1932559981517997e+01 4.7139730996911332e+01 0 0 0
1967 197 5 0.0000000000000000e+00 -2.8948392730839555e+02 -4.0020148982306857e+01 4.8407124206173506e+01 0 0 0
946 95 6 0.0000000000000000e+00 -2.8438168778542359e+02 -4.9630090623542216e+01 6.6640807277967298e+01 0 0 0
945 95 6 0.0000000000000000e+00 -2.7567474097086506e+02 -5.4512589241704681e+01 6.2873958294583844e+01 0 0 0
944 95 5 0.0000000000000000e+00 -2.7591136446568800e+02 -4.7506164964515506e+01 5.6301392469419277e+01 0 0 0
947 95 5 0.0000000000000000e+00 -2.8465055876566356e+02 -3.9640453044298923e+01 6.9359291322565596e+01 0 0 0
1966 197 6 0.0000000000000000e+00 -2.9186340306963422e+02 -3.7030944058897916e+01 5.8081424888224618e+01 0 0 0
4358 381 8 0.0000000000000000e+00 -2.5900839808227073e+02 -4.4575045618070959e+01 6.3682822114026230e+01 0 0 0
948 95 6 0.0000000000000000e+00 -2.9033216093081808e+02 -3.2663074867693098e+01 7.2552182472319359e+01 0 0 0
4327 380 8 0.0000000000000000e+00 -2.8131315538623477e+02 -4.4245530922760032e+01 7.8773278416929969e+01 1 0 0
4359 381 9 0.0000000000000000e+00 -2.6262211368500897e+02 -4.4204407585304914e+01 5.3488867816294260e+01 0 0 0
950 95 5 0.0000000000000000e+00 -2.9524452713625669e+02 -4.9758640900247933e+01 7.8312013077003428e+01 0 0 0
4529 390 8 0.0000000000000000e+00 -2.9648014125676326e+02 -2.9363214668898173e+01 8.3987103770671411e+01 1 0 0
4338 380 8 0.0000000000000000e+00 -2.7427341703131157e+02 -3.7323066617064789e+01 4.7912791980440133e+01 1 0 0
4328 380 7 0.0000000000000000e+00 -2.7588768223983124e+02 -3.5843735566343639e+01 7.6876634063050659e+01 1 0 0
4337 380 7 0.0000000000000000e+00 -2.8038941480292590e+02 -3.6829835605163026e+01 5.5166780114442595e+01 1 0 0
2768 277 6 0.0000000000000000e+00 -2.6133653362558618e+02 -3.0253462672918758e+01 6.6590462184886022e+01 0 0 0
4530 390 9 0.0000000000000000e+00 -2.9257288028407532e+02 -3.8184235569751763e+01 8.4324656702763122e+01 1 0 0
4324 380 8 0.0000000000000000e+00 -2.6135951055972760e+02 -6.2739254465309095e+01 8.4554713920771945e+01 1 0 0
2769 277 6 0.0000000000000000e+00 -2.6811395895526056e+02 -2.9519597243159076e+01 5.9461760877551121e+01 0 0 0
4325 380 7 0.0000000000000000e+00 -2.6551522319743589e+02 -5.4747921931617192e+01 8.0966814324362574e+01 1 0 0
941 95 4 0.0000000000000000e+00 -2.9871965752236150e+02 -4.6651040386842766e+01 4.8142438323395716e+01 0 0 0
949 95 6 0.0000000000000000e+00 -2.9593391828575596e+02 -4.0860292296774077e+01 7.4512745000923871e+01 0 0 0
4336 380 8 0.0000000000000000e+00 -2.8080291583627604e+02 -2.9221918778306755e+01 4.8923663576513597e+01 1 0 0
4326 380 8 0.0000000000000000e+00 -2.7550802917431452e+02 -5.1292436217464981e+01 8.2988608280321301e+01 1 0 0
3272 324 8 0.0000000000000000e+00 -2.3227695227059272e+02 -3.5305664620125732e+01 4.3381288280170061e+01 0 0 0
3401 331 8 0.0000000000000000e+00 -2.4659255548830222e+02 -6.5350561171162852e+01 5.2556172976290576e+01 0 0 0
3271 324 8 0.0000000000000000e+00 -2.4228560733002860e+02 -3.5885118366912003e+01 4.6589319978483260e+01 0 0 0
4357 381 8 0.0000000000000000e+00 -2.5255651457052508e+02 -4.6497055317875024e+01 7.0149290166430106e+01 0 0 0
5029 417 8 0.0000000000000000e+00 -2.1952997129946309e+02 -4.8031781286379804e+01 5.0748740519658902e+01 0 0 0
4356 381 7 0.0000000000000000e+00 -2.5414344789184497e+02 -3.7110556061767817e+01 7.0492592947359142e+01 0 0 0
2250 225 5 0.0000000000000000e+00 -2.3596004040992892e+02 -6.3473933241879237e+01 5.0608829836158669e+01 0 0 0
2249 225 6 0.0000000000000000e+00 -2.4030023915774822e+02 -5.4703958151945145e+01 5.0135387952073785e+01 0 0 0
3402 331 8 0.0000000000000000e+00 -2.4652516250595539e+02 -6.2280711507982311e+01 6.2573638560232482e+01 0 0 0
3403 331 7 0.0000000000000000e+00 -2.4862473245855662e+02 -6.1514149182597940e+01 7.2433557150990424e+01 0 0 0
3409 331 9 0.0000000000000000e+00 -2.3164553473468001e+02 -5.3963542660983045e+01 6.8609228275900435e+01 0 0 0
3408 331 8 0.0000000000000000e+00 -2.3479825309210435e+02 -5.3928243991683331e+01 7.8248840193191597e+01 0 0 0
3405 331 8 0.0000000000000000e+00 -2.5278732825858032e+02 -4.9228728698645597e+01 8.5320002914340989e+01 0 0 0
3404 331 8 0.0000000000000000e+00 -2.5476907574221713e+02 -5.5858829494453808e+01 7.8010123003561347e+01 0 0 0
5028 417 7 0.0000000000000000e+00 -2.2826173495008200e+02 -4.5519062577843691e+01 4.9020253139577207e+01 0 0 0
2087 209 5 0.0000000000000000e+00 -2.2981246954492019e+02 -4.0813980777862753e+01 5.7896616253908327e+01 0 0 0
2089 209 6 0.0000000000000000e+00 -2.3410570248902889e+02 -4.0795260372483462e+01 7.4884211736678481e+01 0 0 0
2246 225 6 0.0000000000000000e+00 -2.3714962179134722e+02 -4.6373397581102452e+01 6.6475922066018569e+01 0 0 0
2247 225 5 0.0000000000000000e+00 -2.4430232205587899e+02 -5.3035042876984846e+01 6.5141904055512214e+01 0 0 0
2248 225 6 0.0000000000000000e+00 -2.4678371076498880e+02 -4.9988196198690396e+01 5.6047479978787138e+01 0 0 0
2767 277 5 0.0000000000000000e+00 -2.5448519811764888e+02 -3.2040042354811241e+01 6.0273292708795580e+01 0 0 0
2088 209 6 0.0000000000000000e+00 -2.2822443895864629e+02 -4.3015749116733154e+01 6.7538647116919719e+01 0 0 0
2086 209 6 0.0000000000000000e+00 -2.2167185534300719e+02 -3.6301518517005093e+01 5.4204325868426849e+01 0 0 0
2090 209 5 0.0000000000000000e+00 -2.4336133313314713e+02 -3.7313771034950015e+01 7.6084283401897082e+01 0 0 0
2245 225 6 0.0000000000000000e+00 -2.3636258715039250e+02 -3.6764452633195340e+01 6.4425075848010167e+01 0 0 0
5627 489 10 0.0000000000000000e+00 -2.2475357352583165e+02 -5.7310412332060530e+01 7.6305435549928248e+01 0 0 0