LAMMPS data file via write_data, version 5 Jun 2019, timestep = 480000000

5660 atoms
11 atom types
5922 bonds
7 bond types
4660 angles
4 angle types

-3.0000000000000000e+02 3.0000000000000000e+02 xlo xhi
-3.0000000000000000e+02 3.0000000000000000e+02 ylo yhi
0.0000000000000000e+00 3.0000000000000000e+02 zlo zhi

Masses

1 1000
2 450
3 450
4 11000
5 7000
6 450
7 450
8 450
9 450
10 450
11 20000

Pair Coeffs # lj/cut

1 0.24 10
2 0.24 10
3 0.24 10
4 0.24 10
5 0.24 10
6 0.24 10
7 0.24 10
8 0.24 10
9 0.24 10
10 0.24 10
11 0.24 30

Angle Coeffs # cosine

1 1
2 1
3 1
4 1

Atoms # full

191 20 1 0.0000000000000000e+00 -1.9962481723321864e+02 -1.3936587910399825e+02 5.0072700000000001e+00 0 0 0
825 83 6 0.0000000000000000e+00 -2.6037481307073762e+02 -1.3353792566252793e+02 1.8787463831972541e+01 0 0 0
826 83 6 0.0000000000000000e+00 -2.6946685431202206e+02 -1.3652629497845524e+02 1.6477105472723441e+01 0 0 0
828 83 6 0.0000000000000000e+00 -2.7013476210552790e+02 -1.2930703110115343e+02 7.1588516167742897e+00 0 0 0
827 83 5 0.0000000000000000e+00 -2.7602620426495224e+02 -1.3734468746322563e+02 9.3214205037485520e+00 0 0 0
829 83 6 0.0000000000000000e+00 -2.6472033000216015e+02 -1.2063802142470129e+02 9.4292187108366115e+00 0 0 0
830 83 5 0.0000000000000000e+00 -2.6240364840126205e+02 -1.2210753450610892e+02 1.9464355577809052e+01 0 0 0
1821 183 4 0.0000000000000000e+00 -2.6158849793420990e+02 -1.0749527727524284e+02 2.7042632241762625e+01 1 0 0
1822 183 6 0.0000000000000000e+00 -2.6253466940305981e+02 -1.0388694173556436e+02 3.6511055293217652e+01 1 0 0
4354 381 8 0.0000000000000000e+00 -2.6366560681764270e+02 -1.2969896140810354e+02 3.4441466810765057e+01 0 0 0
4353 381 7 0.0000000000000000e+00 -2.5771939575230533e+02 -1.2393720042472745e+02 2.7599074698889599e+01 0 0 0
1825 183 6 0.0000000000000000e+00 -2.6197627076968530e+02 -1.1653754325127790e+02 3.9007754103297486e+01 1 0 0
420 42 3 0.0000000000000000e+00 -2.6809283148220123e+02 -9.9127838159267199e+01 2.9809774494503486e+01 1 0 0
193 20 2 0.0000000000000000e+00 -2.0849966501160330e+02 -1.3570873895972628e+02 1.6381319844826905e+01 0 0 0
192 20 2 0.0000000000000000e+00 -2.0999960566153405e+02 -1.3763919944951650e+02 6.0400798964432845e+00 0 0 0
824 83 5 0.0000000000000000e+00 -2.5248431804498847e+02 -1.3419706658160342e+02 2.4311540843000557e+01 0 0 0
1826 183 6 0.0000000000000000e+00 -2.5276961057906624e+02 -1.1404151596889213e+02 4.0476729162112576e+01 1 0 0
195 20 2 0.0000000000000000e+00 -2.2347700049586260e+02 -1.3136108936165616e+02 2.2670620195968461e+01 0 0 0
194 20 3 0.0000000000000000e+00 -2.1501879152237433e+02 -1.2806553322389198e+02 1.9546355049538104e+01 0 0 0
4352 381 8 0.0000000000000000e+00 -2.5169258209365250e+02 -1.1863787305697498e+02 2.1597344527474508e+01 0 0 0
4351 381 8 0.0000000000000000e+00 -2.4502093845684712e+02 -1.1599897253935663e+02 2.9513002176805291e+01 0 0 0
823 83 6 0.0000000000000000e+00 -2.4553332473397793e+02 -1.2733669558959551e+02 2.8277105822227810e+01 0 0 0
1711 172 4 0.0000000000000000e+00 -2.2352253831264554e+02 -1.0985075367041092e+02 3.8567995454454653e+01 0 0 0
4350 381 7 0.0000000000000000e+00 -2.3942012105678413e+02 -1.0933557345842236e+02 3.4674256817845723e+01 0 0 0
1713 172 6 0.0000000000000000e+00 -2.1331851233689812e+02 -1.2408030644648996e+02 3.7610416201629405e+01 0 0 0
822 83 6 0.0000000000000000e+00 -2.4166250255200006e+02 -1.2273075327356102e+02 3.6412522670066515e+01 0 0 0
1714 172 5 0.0000000000000000e+00 -2.0916015522357910e+02 -1.2057384618194305e+02 2.9227443511902631e+01 0 0 0
821 83 4 0.0000000000000000e+00 -2.3248240789269852e+02 -1.1855471364579998e+02 3.8410993650354442e+01 0 0 0
4349 381 8 0.0000000000000000e+00 -2.3305057579410300e+02 -1.0202637973837605e+02 3.4916455946492704e+01 0 0 0
196 20 2 0.0000000000000000e+00 -2.2519088068503243e+02 -1.3009971272911702e+02 3.2976485225440932e+01 0 0 0
1717 172 5 0.0000000000000000e+00 -2.0920388753485420e+02 -1.0295632024400417e+02 3.4438982726689353e+01 0 0 0
1715 172 6 0.0000000000000000e+00 -2.0693307701946651e+02 -1.1315065962589881e+02 2.3215180438678654e+01 0 0 0
4348 381 8 0.0000000000000000e+00 -2.2435762341737160e+02 -9.9303002990194415e+01 3.2981226092954984e+01 0 0 0
1712 172 6 0.0000000000000000e+00 -2.2219873674976716e+02 -1.1940317712710430e+02 4.0290741739026139e+01 0 0 0
1716 172 6 0.0000000000000000e+00 -2.1068710896272898e+02 -1.0444779687906885e+02 2.5070710664452406e+01 0 0 0
4341 381 7 0.0000000000000000e+00 -2.5227012529056537e+02 -9.8431103818399066e+01 3.7930732446745338e+01 0 0 0
4359 381 9 0.0000000000000000e+00 -2.5060271615343922e+02 -1.2583679141538653e+02 4.2516982293715991e+01 0 0 0
197 20 3 0.0000000000000000e+00 -2.2924310865669526e+02 -1.2933108885462025e+02 4.2178601064231778e+01 0 0 0
762 77 2 0.0000000000000000e+00 -1.6345965360017388e+02 -1.3186916757505801e+02 1.3291984989352374e+01 0 0 0
765 77 2 0.0000000000000000e+00 -1.8783157086253595e+02 -1.3138821658162496e+02 2.8943223161342623e+01 0 0 0
764 77 3 0.0000000000000000e+00 -1.7879395553741867e+02 -1.2879515542204018e+02 2.5392482497182552e+01 0 0 0
763 77 2 0.0000000000000000e+00 -1.7180220201207226e+02 -1.3270341580902658e+02 1.8813727692675393e+01 0 0 0
1261 127 4 0.0000000000000000e+00 -1.8153017833412756e+02 -1.1778528419043229e+02 2.3241702997289703e+01 0 0 0
1263 127 6 0.0000000000000000e+00 -1.6335756090427890e+02 -1.1461516785281701e+02 1.7234457364128893e+01 0 0 0
1262 127 6 0.0000000000000000e+00 -1.7401704890541259e+02 -1.1439338322079868e+02 1.8330336062513229e+01 0 0 0
766 77 2 0.0000000000000000e+00 -1.9757856930500404e+02 -1.3196312404085867e+02 3.1889214860381472e+01 0 0 0
767 77 3 0.0000000000000000e+00 -1.9643819391819625e+02 -1.2653363825502804e+02 4.0177454609894205e+01 0 0 0
2761 277 4 0.0000000000000000e+00 -1.8765940707449397e+02 -1.3277797653565167e+02 4.1631695575764404e+01 0 0 0
761 77 1 0.0000000000000000e+00 -1.6323010357153225e+02 -1.2543315309089419e+02 5.0072700000000001e+00 0 0 0
1718 172 6 0.0000000000000000e+00 -2.0312605920590116e+02 -1.0731815210315040e+02 4.1078176956896797e+01 0 0 0
419 42 2 0.0000000000000000e+00 -2.6746330963137387e+02 -9.0607154237943789e+01 3.5587640140901740e+01 1 0 0
417 42 3 0.0000000000000000e+00 -2.6462890419891971e+02 -7.9900707277830719e+01 3.3142085793663504e+01 1 0 0
1434 144 5 0.0000000000000000e+00 -2.6544057774681932e+02 -6.5410663406387329e+01 9.0677941540783440e+00 0 0 0
1433 144 6 0.0000000000000000e+00 -2.6945109974550400e+02 -7.4399032654640180e+01 7.8558302920337910e+00 0 0 0
416 42 2 0.0000000000000000e+00 -2.5990915790915000e+02 -7.2185295208961776e+01 2.9506004346068725e+01 1 0 0
1435 144 6 0.0000000000000000e+00 -2.7003254617305436e+02 -6.3042223721764167e+01 1.7373725428480640e+01 0 0 0
418 42 2 0.0000000000000000e+00 -2.6038610842456291e+02 -8.8352101500272539e+01 2.9597236261927886e+01 1 0 0
991 100 4 0.0000000000000000e+00 -2.7635261263208287e+02 -7.8580224167679390e+01 3.5985765394604691e+01 0 0 0
1436 144 6 0.0000000000000000e+00 -2.6994927968453754e+02 -6.3368225977457691e+01 2.7623218432900448e+01 0 0 0
1437 144 5 0.0000000000000000e+00 -2.6196972055960754e+02 -6.1927829163911767e+01 3.3645555617921154e+01 0 0 0
1432 144 6 0.0000000000000000e+00 -2.6501004516696804e+02 -8.0992559769332317e+01 1.4615436991409910e+01 0 0 0
1431 144 4 0.0000000000000000e+00 -2.5663073091798731e+02 -7.9566993039609912e+01 1.0184744713189515e+01 0 0 0
415 42 2 0.0000000000000000e+00 -2.5599547281642387e+02 -7.7440764043208418e+01 2.1372373576666849e+01 1 0 0
3264 324 7 0.0000000000000000e+00 -2.5992964482815512e+02 -5.7494015773519315e+01 1.4943336649797129e+01 0 0 0
2468 247 6 0.0000000000000000e+00 -2.8694259518415947e+02 -5.7438055492606573e+01 1.5031739572785130e+01 0 0 0
992 100 6 0.0000000000000000e+00 -2.8313121980008276e+02 -7.0844623216052284e+01 3.8700912169804766e+01 0 0 0
993 100 6 0.0000000000000000e+00 -2.9294019811939984e+02 -6.9621853967143934e+01 4.0923357051374587e+01 0 0 0
1438 144 6 0.0000000000000000e+00 -2.5512581159251113e+02 -5.7778629100301288e+01 2.7604240307320023e+01 0 0 0
411 42 1 0.0000000000000000e+00 -2.4022704412336677e+02 -9.4965709218530705e+01 5.0286200000000001e+00 1 0 0
4347 381 7 0.0000000000000000e+00 -2.1616251897410854e+02 -9.5107508467392876e+01 3.0364603772403655e+01 0 0 0
414 42 3 0.0000000000000000e+00 -2.4776469205295183e+02 -7.4593062061600747e+01 1.5656132680033391e+01 1 0 0
412 42 2 0.0000000000000000e+00 -2.3988001887389532e+02 -8.4615608385438264e+01 7.5268875330953984e+00 1 0 0
413 42 2 0.0000000000000000e+00 -2.3816378697536592e+02 -7.6072372750173059e+01 1.2086483907262529e+01 1 0 0
2066 207 6 0.0000000000000000e+00 -2.3918080466553801e+02 -7.8795169106777337e+01 2.2648428050221380e+01 1 0 0
2067 207 5 0.0000000000000000e+00 -2.4429009267758639e+02 -7.0216560370608633e+01 2.4110219899635325e+01 1 0 0
2064 207 5 0.0000000000000000e+00 -2.3461556987492591e+02 -8.9635887963661972e+01 3.5811739386916848e+01 1 0 0
2068 207 6 0.0000000000000000e+00 -2.4052550267122817e+02 -6.2938268102912033e+01 3.0602692943500639e+01 1 0 0
387 39 3 0.0000000000000000e+00 -2.1105283793188968e+02 -6.7194548892854826e+01 3.5538050088933794e+01 0 0 0
2065 207 6 0.0000000000000000e+00 -2.4051277020519646e+02 -8.6666687017307112e+01 2.8746899364584710e+01 1 0 0
3258 324 7 0.0000000000000000e+00 -2.3736890240852421e+02 -6.1771871645161568e+01 2.1016484675265357e+01 0 0 0
3259 324 8 0.0000000000000000e+00 -2.3183075778549647e+02 -5.8046428016676806e+01 1.2847711470969397e+01 0 0 0
4346 381 8 0.0000000000000000e+00 -2.1826434238413555e+02 -8.4933160275459713e+01 3.1525761534981161e+01 0 0 0
4342 381 8 0.0000000000000000e+00 -2.4814343082928292e+02 -8.9326144518840763e+01 3.8832699629558881e+01 0 0 0
388 39 2 0.0000000000000000e+00 -2.1963798537846912e+02 -6.9071088243887246e+01 3.9795662248424335e+01 0 0 0
4345 381 8 0.0000000000000000e+00 -2.2499958389666560e+02 -7.8158385656918512e+01 3.3896200390976027e+01 0 0 0
4344 381 7 0.0000000000000000e+00 -2.3496596436528682e+02 -7.8421560218148400e+01 3.4117281357422016e+01 0 0 0
4343 381 8 0.0000000000000000e+00 -2.4110494449144366e+02 -8.2457835353771500e+01 4.0767445496611501e+01 0 0 0
2591 260 4 0.0000000000000000e+00 -2.1939855875296482e+02 -6.0028423993106152e+01 3.5880619242894369e+01 1 0 0
2069 207 6 0.0000000000000000e+00 -2.4489223196013364e+02 -6.5778269973816222e+01 3.8883489438136621e+01 1 0 0
2063 207 6 0.0000000000000000e+00 -2.2816438831586871e+02 -9.3954550888097273e+01 4.2818480571617222e+01 1 0 0
3935 359 7 0.0000000000000000e+00 -2.1780253787460700e+02 -7.9416313197137583e+01 4.1640430532280654e+01 0 0 0
3934 359 8 0.0000000000000000e+00 -2.1078667965501086e+02 -8.6502991091652049e+01 4.0005409883720262e+01 0 0 0
386 39 2 0.0000000000000000e+00 -2.0334468091743727e+02 -6.6084248313230432e+01 2.9042130796337197e+01 0 0 0
385 39 2 0.0000000000000000e+00 -1.9560565775310613e+02 -6.8127251450065216e+01 2.2920388319806019e+01 0 0 0
5451 439 8 0.0000000000000000e+00 -1.6830335770065039e+02 -7.9926094020774855e+01 1.2941266652656113e+01 0 0 0
5450 439 8 0.0000000000000000e+00 -1.6105152354187638e+02 -8.1921970879880845e+01 1.9177231220324547e+01 0 0 0
381 39 1 0.0000000000000000e+00 -1.7488956660234629e+02 -9.0757068896723780e+01 5.0285799999999998e+00 0 0 0
382 39 2 0.0000000000000000e+00 -1.8182564999373926e+02 -8.7279094915169367e+01 1.1476101482826071e+01 0 0 0
1015 102 6 0.0000000000000000e+00 -2.0257612775221295e+02 -6.5365089441083612e+01 1.0613324872052054e+01 1 0 0
384 39 3 0.0000000000000000e+00 -1.9284299254644861e+02 -7.5302761041998863e+01 1.6666134774246370e+01 0 0 0
383 39 2 0.0000000000000000e+00 -1.8938255721652138e+02 -8.1223704621035395e+01 9.8202148295258365e+00 0 0 0
1011 102 4 0.0000000000000000e+00 -1.8727370876055505e+02 -6.5403688005962877e+01 1.5062416696432429e+01 1 0 0
1019 102 6 0.0000000000000000e+00 -1.6938332878521663e+02 -7.9369570997033620e+01 1.3954270386874130e+00 1 0 0
1020 102 5 0.0000000000000000e+00 -1.6123459072675232e+02 -8.1343897561621802e+01 6.6612516265602641e+00 1 0 0
5452 439 7 0.0000000000000000e+00 -1.7800517419931478e+02 -7.7083535355513035e+01 1.2185436606166826e+01 0 0 0
1018 102 6 0.0000000000000000e+00 -1.7917177532370712e+02 -7.6627529618294673e+01 2.7098564743830700e-01 1 0 0
1017 102 5 0.0000000000000000e+00 -1.8594275424015828e+02 -7.1368343407463527e+01 5.2410501796045921e+00 1 0 0
1016 102 6 0.0000000000000000e+00 -1.9606319344197377e+02 -7.1990442444915303e+01 7.1589523590063209e+00 1 0 0
5453 439 8 0.0000000000000000e+00 -1.8388062737831694e+02 -7.4201760508397896e+01 1.9815208342883700e+01 0 0 0
5454 439 8 0.0000000000000000e+00 -1.7997156707367145e+02 -6.7134515570211363e+01 2.5610484321180977e+01 0 0 0
1877 188 5 0.0000000000000000e+00 -1.7123647512558242e+02 -6.1575376497960811e+01 2.6836141608300764e+01 0 0 0
677 68 3 0.0000000000000000e+00 -1.7043789842620436e+02 -7.1874734735698212e+01 3.4170940098953338e+01 0 0 0
5455 439 7 0.0000000000000000e+00 -1.8148345187475346e+02 -5.8975811456375723e+01 3.1006331467084472e+01 0 0 0
5647 496 11 0.0000000000000000e+00 -1.9985979526606812e+02 -6.1575668318268860e+01 3.9438982031374053e+01 1 0 0
675 68 2 0.0000000000000000e+00 -1.7408543347993484e+02 -6.8439439064574756e+01 1.7939483914452957e+01 0 0 0
2532 254 6 0.0000000000000000e+00 -1.6608767168654032e+02 -6.3033976508227262e+01 1.5287647205453315e+01 0 0 0
676 68 2 0.0000000000000000e+00 -1.7369776677736124e+02 -7.4661452554585949e+01 2.5713224002362971e+01 0 0 0
678 68 2 0.0000000000000000e+00 -1.7007243682139031e+02 -6.5150962475705427e+01 4.1094224877678244e+01 0 0 0
2531 254 4 0.0000000000000000e+00 -1.7034817954391980e+02 -5.9337805981621308e+01 6.9741882489877263e+00 0 0 0
674 68 3 0.0000000000000000e+00 -1.7917890389585642e+02 -6.0245240922657224e+01 1.4319624659747632e+01 0 0 0
1012 102 6 0.0000000000000000e+00 -1.9117406229168787e+02 -5.6946752812969855e+01 1.8014323256356263e+01 1 0 0
3933 359 8 0.0000000000000000e+00 -2.0523716420074172e+02 -9.4632019814194535e+01 3.8705063817709338e+01 0 0 0
1032 104 6 0.0000000000000000e+00 -1.6822332301694590e+02 -8.4800874900578904e+01 4.1778892559417798e+01 0 0 0
5449 439 7 0.0000000000000000e+00 -1.5873157475374094e+02 -8.0708029893113178e+01 2.8296287419159690e+01 0 0 0
3265 324 8 0.0000000000000000e+00 -2.6403846676195826e+02 -5.1183098020751743e+01 2.1106524139631382e+01 0 0 0
2467 247 5 0.0000000000000000e+00 -2.9394664131223880e+02 -5.6765684953406250e+01 2.1560768902547220e+01 0 0 0
2469 247 6 0.0000000000000000e+00 -2.7825568680591431e+02 -5.3214492148285593e+01 1.7412415975881313e+01 0 0 0
3271 324 8 0.0000000000000000e+00 -2.7361320484742413e+02 -2.1497535635543969e+01 3.3079426836293834e+01 0 0 0
757 76 3 0.0000000000000000e+00 -2.7618818873086082e+02 -2.2224420192348809e+01 9.0890319872862635e-01 0 0 0
3266 324 8 0.0000000000000000e+00 -2.7065802149532379e+02 -4.6576254811544288e+01 2.7290072853183432e+01 0 0 0
759 76 2 0.0000000000000000e+00 -2.6891890298867821e+02 -2.1995215053279793e+01 1.0978303979891876e+01 0 0 0
2470 247 5 0.0000000000000000e+00 -2.8514824388115591e+02 -5.2801208695717520e+01 2.4912772182959305e+01 0 0 0
3267 324 7 0.0000000000000000e+00 -2.7682640251534218e+02 -5.2632621582571467e+01 3.1650450343517861e+01 0 0 0
3268 324 8 0.0000000000000000e+00 -2.8041169035044544e+02 -4.3810880850163699e+01 2.8864490720363257e+01 0 0 0
3269 324 8 0.0000000000000000e+00 -2.8196095465391176e+02 -3.4543800190071977e+01 2.7851845210226912e+01 0 0 0
2758 276 6 0.0000000000000000e+00 -2.8900051524483086e+02 -3.1777441459030520e+01 3.6855113139197293e+01 0 0 0
2757 276 5 0.0000000000000000e+00 -2.9292436497588443e+02 -2.8545312413998193e+01 2.8135048197907942e+01 0 0 0
1440 144 5 0.0000000000000000e+00 -2.5958623568374531e+02 -3.9186617869237168e+01 2.9617085617296755e+01 0 0 0
758 76 2 0.0000000000000000e+00 -2.6661993319251235e+02 -1.8562712075532726e+01 2.1741862788829689e+00 0 0 0
61 7 1 0.0000000000000000e+00 -2.8386430498277463e+02 -4.3552196211255279e+01 5.0072700000000001e+00 1 0 0
62 7 2 0.0000000000000000e+00 -2.8438317828996082e+02 -4.0106834398786908e+01 1.4442843580607247e+01 1 0 0
3677 346 8 0.0000000000000000e+00 -2.5747869381751900e+02 -2.5314924310917675e+01 1.7399675663486494e+01 1 0 0
63 7 2 0.0000000000000000e+00 -2.9173837105636807e+02 -3.5481694345433311e+01 1.8430117263573408e+01 1 0 0
756 76 2 0.0000000000000000e+00 -2.8483765183589890e+02 -2.3506840201709025e+01 5.7705719831231370e+00 0 0 0
3270 324 7 0.0000000000000000e+00 -2.8271978913865496e+02 -2.5085066608822956e+01 2.9968686741934992e+01 0 0 0
65 7 2 0.0000000000000000e+00 -2.9655664816168343e+02 -1.7645612978522774e+01 1.7368633356688228e+01 1 0 0
760 76 3 0.0000000000000000e+00 -2.7516543502165212e+02 -2.3601165247012482e+01 1.8857295061768124e+01 0 0 0
64 7 3 0.0000000000000000e+00 -2.9477077390334784e+02 -2.7293341799309754e+01 1.5112857471417966e+01 1 0 0
1439 144 6 0.0000000000000000e+00 -2.5497030269536791e+02 -4.7832599730879799e+01 2.7775822616893890e+01 0 0 0
2756 276 6 0.0000000000000000e+00 -2.9480034972736570e+02 -3.7441620874447182e+01 3.0421009651568294e+01 0 0 0
1000 100 5 0.0000000000000000e+00 -2.9871335826750453e+02 -2.9891101474397310e+01 4.2062536128377346e+01 0 0 0
3263 324 8 0.0000000000000000e+00 -2.5419628987018311e+02 -4.9861723837020811e+01 1.5549456212911565e+01 0 0 0
3676 346 7 0.0000000000000000e+00 -2.5581861329578015e+02 -3.5059741393496978e+01 2.0163092429845442e+01 1 0 0
571 58 1 0.0000000000000000e+00 -2.5329928128437430e+02 -2.2488625339342882e+01 5.0072700000000001e+00 0 0 0
2755 276 6 0.0000000000000000e+00 -2.9805144207809803e+02 -4.5923881211136177e+01 2.6442257188815550e+01 0 0 0
755 76 2 0.0000000000000000e+00 -2.9177478536445119e+02 -1.6899216805743656e+01 7.9230625180253158e+00 0 0 0
2592 260 6 0.0000000000000000e+00 -2.2789218998039851e+02 -5.5006685210005301e+01 3.8637466957906753e+01 1 0 0
3260 324 8 0.0000000000000000e+00 -2.2542264113383635e+02 -5.1100592879642697e+01 1.7464279504221576e+01 0 0 0
2593 260 6 0.0000000000000000e+00 -2.2770047228442670e+02 -4.4809169354799842e+01 3.8786089918059623e+01 1 0 0
1852 186 6 0.0000000000000000e+00 -2.4908476874977961e+02 -2.1786697249735191e+01 3.8986032465271798e+01 1 0 0
3262 324 8 0.0000000000000000e+00 -2.4445871066112900e+02 -4.9884862917619849e+01 1.9866302720328797e+01 0 0 0
3261 324 7 0.0000000000000000e+00 -2.3453598168955423e+02 -5.1766395987584069e+01 2.1575015694559532e+01 0 0 0
576 58 2 0.0000000000000000e+00 -2.3750781532614840e+02 -3.4951170763173231e+01 2.1711548392736276e+01 0 0 0
795 80 2 0.0000000000000000e+00 -2.1032524040859337e+02 -3.3082923480750537e+01 2.5694528275462595e+01 0 0 0
2414 242 5 0.0000000000000000e+00 -2.1553237600817351e+02 -4.1475942179262461e+01 2.6743935276633007e+01 0 0 0
2412 242 6 0.0000000000000000e+00 -2.2611314821623532e+02 -3.1535972840387078e+01 4.0527830966564672e+01 0 0 0
2411 242 4 0.0000000000000000e+00 -2.2271352610371724e+02 -2.5789756713059152e+01 3.2894150960053231e+01 0 0 0
794 80 3 0.0000000000000000e+00 -2.2064616104540795e+02 -3.3501572562242558e+01 2.4277488493426539e+01 0 0 0
793 80 2 0.0000000000000000e+00 -2.2798332925928824e+02 -3.7376327340651635e+01 1.8373501518876981e+01 0 0 0
577 58 3 0.0000000000000000e+00 -2.4075260073636215e+02 -3.0656592765327744e+01 2.9722017862555273e+01 0 0 0
1851 186 4 0.0000000000000000e+00 -2.3958608083205252e+02 -2.1174688356407319e+01 3.5379686029630477e+01 1 0 0
792 80 2 0.0000000000000000e+00 -2.3457144183466664e+02 -3.4738215081052438e+01 1.1571663027075342e+01 0 0 0
791 80 1 0.0000000000000000e+00 -2.4085266173820673e+02 -3.8339719494153094e+01 5.0286200000000001e+00 0 0 0
975 98 6 0.0000000000000000e+00 -2.3755918786241349e+02 -4.3126943498797552e+01 3.3993498170513547e+01 0 0 0
2415 242 6 0.0000000000000000e+00 -2.0952817912411581e+02 -3.9902678468802463e+01 3.4527760469706067e+01 0 0 0
974 98 5 0.0000000000000000e+00 -2.3698668458334572e+02 -5.2783624481271936e+01 3.2239458198328464e+01 0 0 0
2413 242 6 0.0000000000000000e+00 -2.2116091988866745e+02 -3.7922297107239011e+01 3.4547305318925588e+01 0 0 0
575 58 2 0.0000000000000000e+00 -2.3421122568594538e+02 -2.6634937333266620e+01 1.6990744331638066e+01 0 0 0
976 98 6 0.0000000000000000e+00 -2.4707818860613841e+02 -4.2442230626216585e+01 3.7842966061226974e+01 0 0 0
578 58 2 0.0000000000000000e+00 -2.4127439216848535e+02 -3.0754322298674843e+01 3.9620977582571101e+01 0 0 0
973 98 6 0.0000000000000000e+00 -2.4295185001599759e+02 -5.3075968928342476e+01 4.0393067911538118e+01 0 0 0
942 95 6 0.0000000000000000e+00 -2.2983407408175228e+02 -1.8763832934838536e+01 3.4110397382152065e+01 0 0 0
2416 242 6 0.0000000000000000e+00 -2.1384285881430350e+02 -4.3122214089081318e+01 4.2306017570969964e+01 0 0 0
3779 351 8 0.0000000000000000e+00 -2.0559402079222573e+02 -3.3981838205055958e+01 4.1785298101049641e+01 0 0 0
574 58 3 0.0000000000000000e+00 -2.3131849515842580e+02 -1.7743948654916476e+01 1.3218923023126143e+01 0 0 0
941 95 4 0.0000000000000000e+00 -2.2914832783388198e+02 -1.6426842507500997e+01 2.4304665106520435e+01 0 0 0
572 58 2 0.0000000000000000e+00 -2.4532295950298808e+02 -1.6802305890091528e+01 4.4037593402046999e+00 0 0 0
1878 188 6 0.0000000000000000e+00 -1.6189023526656277e+02 -5.6801652276242024e+01 2.6000014461574679e+01 0 0 0
5646 496 10 0.0000000000000000e+00 -1.9753633276452123e+02 -5.5893915404833336e+01 3.1209334212565629e+01 1 0 0
5029 417 8 0.0000000000000000e+00 -1.6016529901094577e+02 -2.3512155158060992e+01 2.9225527778284359e+01 0 0 0
1014 102 5 0.0000000000000000e+00 -2.0315461404175161e+02 -5.6714767553715426e+01 1.4848262735002670e+01 1 0 0
796 80 2 0.0000000000000000e+00 -2.0036617755709915e+02 -3.5368831188714275e+01 2.5857100456632146e+01 0 0 0
5456 439 8 0.0000000000000000e+00 -1.7252012656178169e+02 -5.5089261379953342e+01 3.5066793131019523e+01 0 0 0
1013 102 6 0.0000000000000000e+00 -1.9563860730584781e+02 -5.0485867047912848e+01 1.1983439570909306e+01 1 0 0
673 68 2 0.0000000000000000e+00 -1.8063771096832716e+02 -5.1324542442098156e+01 1.0741456863516172e+01 0 0 0
1876 188 6 0.0000000000000000e+00 -1.7808513985106589e+02 -5.4759631561975482e+01 2.3605170659722560e+01 0 0 0
672 68 2 0.0000000000000000e+00 -1.8508470469057909e+02 -4.2178149976348514e+01 1.0098002536458885e+01 0 0 0
671 68 1 0.0000000000000000e+00 -1.9369431191612176e+02 -4.0825769875145383e+01 5.1170700000000000e+00 0 0 0
797 80 3 0.0000000000000000e+00 -1.9288042219600587e+02 -3.8177526963033706e+01 3.2428941205476981e+01 0 0 0
798 80 2 0.0000000000000000e+00 -1.8606204011510221e+02 -3.1237070998861732e+01 2.9944296035577949e+01 0 0 0
5457 439 8 0.0000000000000000e+00 -1.6710543556959411e+02 -4.7331718863309952e+01 3.4424407381135140e+01 0 0 0
800 80 3 0.0000000000000000e+00 -1.8746761492862609e+02 -2.3543247641984237e+01 1.6712272125161139e+01 0 0 0
1875 188 6 0.0000000000000000e+00 -1.8144666387673581e+02 -4.4984985373671101e+01 2.2463294147584879e+01 0 0 0
1874 188 5 0.0000000000000000e+00 -1.7219820203387943e+02 -4.0858534200810269e+01 2.5084494456023847e+01 0 0 0
1873 188 6 0.0000000000000000e+00 -1.7441748791622953e+02 -3.1622106394358379e+01 2.8473062904344147e+01 0 0 0
1872 188 6 0.0000000000000000e+00 -1.7835149278439999e+02 -2.8285811306258793e+01 2.0182384348204703e+01 0 0 0
1871 188 4 0.0000000000000000e+00 -1.8485836587644732e+02 -3.4322569816168375e+01 1.5007785258898757e+01 0 0 0
1801 181 4 0.0000000000000000e+00 -2.0076875208671504e+02 -4.2746157054520395e+01 3.9569580214294191e+01 0 0 0
5458 439 7 0.0000000000000000e+00 -1.7163099012226371e+02 -3.8624073896901706e+01 3.6231862561609240e+01 0 0 0
5459 439 8 0.0000000000000000e+00 -1.8019061656942736e+02 -3.5249449491258801e+01 4.0086883664171253e+01 0 0 0
799 80 2 0.0000000000000000e+00 -1.8409102991731930e+02 -2.2456711845972556e+01 2.6678457428873891e+01 0 0 0
5461 439 9 0.0000000000000000e+00 -1.8935773610176435e+02 -4.8031129844806841e+01 3.1202904674842131e+01 0 0 0
5460 439 8 0.0000000000000000e+00 -1.8206408774958751e+02 -4.4258346714363725e+01 3.6325426956798111e+01 0 0 0
5028 417 7 0.0000000000000000e+00 -1.6142918614036270e+02 -3.3462224834876054e+01 3.0684825890846984e+01 0 0 0
2244 225 5 0.0000000000000000e+00 -1.9113671089702973e+02 -1.6889694462167665e+01 4.0102428074293442e+01 0 0 0
3777 351 7 0.0000000000000000e+00 -1.8842564823739465e+02 -2.7258435852122322e+01 3.9352761202715534e+01 0 0 0
4355 381 8 0.0000000000000000e+00 -2.6729763775283106e+02 -1.3082585799259846e+02 4.4271752246278155e+01 0 0 0
4356 381 7 0.0000000000000000e+00 -2.6677508210961560e+02 -1.2288318689665573e+02 5.0735048287226590e+01 0 0 0
1823 183 6 0.0000000000000000e+00 -2.5990732505818232e+02 -1.0777558840865343e+02 4.5636034086724450e+01 1 0 0
4357 381 8 0.0000000000000000e+00 -2.6121004549834322e+02 -1.3011059935431209e+02 5.5097696285213722e+01 0 0 0
1824 183 5 0.0000000000000000e+00 -2.6849051973534921e+02 -1.1306949048999451e+02 4.6419856735876678e+01 1 0 0
5560 467 11 0.0000000000000000e+00 -2.5340120991053618e+02 -1.0825051972606560e+02 5.3684681238452974e+01 0 0 0
2062 207 6 0.0000000000000000e+00 -2.2108069305137667e+02 -1.0031570941687819e+02 4.5549963603665603e+01 1 0 0
4358 381 8 0.0000000000000000e+00 -2.5168600574303863e+02 -1.3092152234787474e+02 5.0990256956089517e+01 0 0 0
5559 467 10 0.0000000000000000e+00 -2.5140456409184193e+02 -1.1807191559710020e+02 5.0796345148871211e+01 0 0 0
200 20 3 0.0000000000000000e+00 -2.3229470170741430e+02 -1.1066058305442165e+02 4.5605240668652662e+01 0 0 0
1827 183 5 0.0000000000000000e+00 -2.4402063653881808e+02 -1.1131034724291645e+02 4.4393184324562235e+01 1 0 0
198 20 2 0.0000000000000000e+00 -2.3044206810489311e+02 -1.2206561848239465e+02 4.9233036500961028e+01 0 0 0
1828 183 6 0.0000000000000000e+00 -2.4175110556049208e+02 -1.0078275042752566e+02 4.5897023488055503e+01 1 0 0
199 20 2 0.0000000000000000e+00 -2.3823470046454298e+02 -1.1614308802727068e+02 5.1074138235266759e+01 0 0 0
770 77 3 0.0000000000000000e+00 -2.0955409535975815e+02 -1.1612329016182484e+02 5.2640003602787530e+01 0 0 0
2061 207 4 0.0000000000000000e+00 -2.1578215712326170e+02 -1.0771932681949123e+02 4.9144327216023953e+01 1 0 0
5561 467 10 0.0000000000000000e+00 -2.4852211638125979e+02 -1.0034987016953644e+02 5.6820128727514174e+01 0 0 0
3941 359 9 0.0000000000000000e+00 -2.3850839706169549e+02 -1.0461883182626295e+02 5.5866518037785156e+01 0 0 0
3940 359 8 0.0000000000000000e+00 -2.3194432819014446e+02 -1.0115927837019629e+02 4.9727893820886202e+01 0 0 0
3929 359 7 0.0000000000000000e+00 -2.1049303490581042e+02 -1.0186586977849676e+02 7.0714287698270354e+01 0 0 0
3928 359 8 0.0000000000000000e+00 -2.1635858424766829e+02 -1.0025251006344490e+02 7.9092478317135289e+01 0 0 0
3926 359 7 0.0000000000000000e+00 -2.2922128379435537e+02 -1.0206916237344491e+02 8.2377383896555116e+01 0 0 0
769 77 2 0.0000000000000000e+00 -2.0438221835545642e+02 -1.2364356949733069e+02 5.7171807818902991e+01 0 0 0
1720 172 5 0.0000000000000000e+00 -2.0480796285005994e+02 -1.0495655640466720e+02 5.5902739732622763e+01 0 0 0
2766 277 6 0.0000000000000000e+00 -1.9523609111063769e+02 -1.1909055915296396e+02 6.1882231394398097e+01 0 0 0
768 77 2 0.0000000000000000e+00 -2.0128968866206705e+02 -1.2911675482071419e+02 4.9057542544751080e+01 0 0 0
1719 172 6 0.0000000000000000e+00 -1.9990737861637615e+02 -1.1115705779306640e+02 4.9504400860997443e+01 0 0 0
2762 277 6 0.0000000000000000e+00 -1.8408664330247279e+02 -1.2356325707418435e+02 4.5563026468129138e+01 0 0 0
2765 277 6 0.0000000000000000e+00 -1.8636834503913198e+02 -1.1454980568599562e+02 6.4266991255085870e+01 0 0 0
2763 277 6 0.0000000000000000e+00 -1.8783020833988670e+02 -1.1685298795899901e+02 5.2319498527171987e+01 0 0 0
2764 277 5 0.0000000000000000e+00 -1.9107808696283456e+02 -1.0911260139506972e+02 5.7690305582879844e+01 0 0 0
2767 277 5 0.0000000000000000e+00 -1.9940742407888465e+02 -1.2495035936414320e+02 6.8364399924799500e+01 0 0 0
2768 277 6 0.0000000000000000e+00 -1.9023022713715903e+02 -1.2831573168963456e+02 7.1374673533076248e+01 0 0 0
2769 277 6 0.0000000000000000e+00 -1.8069442058506107e+02 -1.2656216145595928e+02 6.8678891425912795e+01 0 0 0
2770 277 5 0.0000000000000000e+00 -1.7580951301057542e+02 -1.3264195195092881e+02 6.2290718659155957e+01 0 0 0
3930 359 8 0.0000000000000000e+00 -2.0416838685480948e+02 -9.7528007072910214e+01 6.4534281195685736e+01 0 0 0
1830 183 5 0.0000000000000000e+00 -2.5743009930897358e+02 -9.6967134435514609e+01 4.7307883547454296e+01 1 0 0
3927 359 8 0.0000000000000000e+00 -2.2353093475409000e+02 -9.4319684450787250e+01 8.2962469431510129e+01 0 0 0
389 39 2 0.0000000000000000e+00 -2.2451322529387281e+02 -6.5725306513231459e+01 4.7781452636520577e+01 0 0 0
1829 183 6 0.0000000000000000e+00 -2.4874880248665428e+02 -9.3965702888678450e+01 4.7730450123017327e+01 1 0 0
3939 359 8 0.0000000000000000e+00 -2.3419793149414531e+02 -9.3148789272578625e+01 5.3481154493548374e+01 0 0 0
2070 207 5 0.0000000000000000e+00 -2.5013736467395000e+02 -6.1815566111286564e+01 4.6740474959187345e+01 1 0 0
3936 359 8 0.0000000000000000e+00 -2.2608823713227059e+02 -8.1981677461514849e+01 4.7272428294958509e+01 0 0 0
3937 359 8 0.0000000000000000e+00 -2.3265131329216371e+02 -7.9506838157406932e+01 5.4884450204061153e+01 0 0 0
3938 359 7 0.0000000000000000e+00 -2.3739060422504741e+02 -8.7122717849095892e+01 6.0043386608163701e+01 0 0 0
2419 242 6 0.0000000000000000e+00 -2.1848797623918006e+02 -5.8089211937997455e+01 4.7393936814437339e+01 0 0 0
2420 242 5 0.0000000000000000e+00 -2.1170449961273476e+02 -6.5963005780911843e+01 4.5303976545197870e+01 0 0 0
390 39 3 0.0000000000000000e+00 -2.3094461639982072e+02 -5.8326050862299240e+01 5.0138881480661851e+01 0 0 0
1031 104 4 0.0000000000000000e+00 -1.6974649967767294e+02 -7.5073675522969225e+01 4.4071710904418346e+01 0 0 0
3932 359 7 0.0000000000000000e+00 -2.0129508356869917e+02 -9.6933412840131851e+01 4.8110690381851725e+01 0 0 0