LAMMPS data file via write_data, version 5 Jun 2019, timestep = 440000000

5660 atoms
11 atom types
5950 bonds
7 bond types
4660 angles
4 angle types

-3.0000000000000000e+02 3.0000000000000000e+02 xlo xhi
-3.0000000000000000e+02 3.0000000000000000e+02 ylo yhi
0.0000000000000000e+00 3.0000000000000000e+02 zlo zhi

Masses

1 1000
2 450
3 450
4 11000
5 7000
6 450
7 450
8 450
9 450
10 450
11 20000

Pair Coeffs # lj/cut

1 0.24 10
2 0.24 10
3 0.24 10
4 0.24 10
5 0.24 10
6 0.24 10
7 0.24 10
8 0.24 10
9 0.24 10
10 0.24 10
11 0.24 30

Angle Coeffs # cosine

1 1
2 1
3 1
4 1

Atoms # full

751 76 1 0.0000000000000000e+00 -2.8563078799419185e+02 -5.7345643488620219e+01 6.8810700000000002e+00 0 0 0
1013 102 6 0.0000000000000000e+00 -2.6893929208253962e+02 -6.6874318059811287e+01 1.8447133716842494e+01 1 0 0
1011 102 4 0.0000000000000000e+00 -2.7649695613978008e+02 -5.4150581714772485e+01 2.8134587613003667e+01 1 0 0
1012 102 6 0.0000000000000000e+00 -2.7250569155947397e+02 -6.3236567684296958e+01 2.6997117866764484e+01 1 0 0
1854 186 5 0.0000000000000000e+00 -2.9001679395874550e+02 -4.7831969582572128e+01 3.8716329056587469e+01 1 0 0
4339 380 8 0.0000000000000000e+00 -2.6656498385628169e+02 -5.5219230680219077e+01 3.7370074485149594e+01 1 0 0
592 60 2 0.0000000000000000e+00 -2.6413137539890613e+02 -6.2672051025965530e+01 6.3209029470650915e+00 1 0 0
594 60 3 0.0000000000000000e+00 -2.6656378899016460e+02 -5.2896816943925202e+01 1.2742971671743778e+01 1 0 0
4351 381 8 0.0000000000000000e+00 -2.7845084428821554e+02 -6.1269750713595208e+01 3.7736278457471307e+01 0 0 0
754 76 3 0.0000000000000000e+00 -2.9357718409521789e+02 -5.5224897878132396e+01 2.7710688037013139e+01 0 0 0
753 76 2 0.0000000000000000e+00 -2.9565982299143957e+02 -5.9961692637079253e+01 1.8313808482548097e+01 0 0 0
755 76 2 0.0000000000000000e+00 -2.9090305791635438e+02 -6.0394183973155386e+01 3.5692170145803175e+01 0 0 0
4340 380 9 0.0000000000000000e+00 -2.7445422076556372e+02 -5.1242212779159992e+01 4.1954503244011661e+01 1 0 0
4338 380 8 0.0000000000000000e+00 -2.6458464413888726e+02 -5.4636079852684752e+01 2.7946889685530561e+01 1 0 0
591 60 1 0.0000000000000000e+00 -2.6130957800147769e+02 -7.2553057452232665e+01 5.1971699999999998e+00 1 0 0
752 76 2 0.0000000000000000e+00 -2.9527774580856965e+02 -5.9157432876881295e+01 8.8185146648238693e+00 0 0 0
756 76 2 0.0000000000000000e+00 -2.9379130147776567e+02 -6.9619079469626939e+01 3.9458172286157399e+01 0 0 0
4354 381 8 0.0000000000000000e+00 -2.7143024483063090e+02 -8.0095210356985177e+01 3.8739329213390981e+01 0 0 0
4355 381 8 0.0000000000000000e+00 -2.6434330510926242e+02 -7.3768442701733917e+01 3.9161780805600046e+01 0 0 0
1853 186 6 0.0000000000000000e+00 -2.9776552262854398e+02 -4.7390851541049585e+01 3.3018261421530987e+01 1 0 0
2593 260 6 0.0000000000000000e+00 -2.3773589991518986e+02 -8.5707969777040049e+01 3.4059521990582141e+01 1 0 0
2592 260 6 0.0000000000000000e+00 -2.2737915069345939e+02 -8.6247464765265178e+01 3.4386333208026407e+01 1 0 0
593 60 2 0.0000000000000000e+00 -2.6078615850238225e+02 -5.3181721821570669e+01 4.9742433374718855e+00 1 0 0
1014 102 5 0.0000000000000000e+00 -2.6066769344079921e+02 -6.1346219286385860e+01 1.7260644042943962e+01 1 0 0
933 94 6 0.0000000000000000e+00 -2.5917071062403170e+02 -6.2089041743155420e+01 4.1536107067606508e+01 1 0 0
4337 380 7 0.0000000000000000e+00 -2.5764096574075199e+02 -5.2031307890575427e+01 2.1351280382767854e+01 1 0 0
1015 102 6 0.0000000000000000e+00 -2.5715178045918373e+02 -6.2421503004948541e+01 2.6963235046280438e+01 1 0 0
2591 260 4 0.0000000000000000e+00 -2.3051915747410942e+02 -8.1332538723277793e+01 4.2049469728131911e+01 1 0 0
1018 102 6 0.0000000000000000e+00 -2.4461931143017310e+02 -7.4617341576632924e+01 2.5457012738012860e+01 1 0 0
4336 380 8 0.0000000000000000e+00 -2.5156746043048372e+02 -5.3748250713459434e+01 1.3649139294483625e+01 1 0 0
4334 380 7 0.0000000000000000e+00 -2.4408815341559037e+02 -5.7109168026646095e+01 5.0036247627844261e+00 1 0 0
821 83 4 0.0000000000000000e+00 -2.2935279518252435e+02 -5.2035266819713620e+01 2.5140254858124752e+01 0 0 0
1020 102 5 0.0000000000000000e+00 -2.3929312556280331e+02 -6.4033778112497060e+01 1.1267936059293108e+01 1 0 0
4335 380 8 0.0000000000000000e+00 -2.5306524231614654e+02 -6.1651482597074597e+01 8.1384669171068307e+00 1 0 0
1016 102 6 0.0000000000000000e+00 -2.4888552792595374e+02 -6.6447115604579650e+01 3.0197681273732222e+01 1 0 0
1017 102 5 0.0000000000000000e+00 -2.5164351042331873e+02 -7.5450918690101744e+01 3.2668523270142117e+01 1 0 0
4333 380 8 0.0000000000000000e+00 -2.3446768147042087e+02 -5.3001336342900359e+01 6.5266020828942546e+00 1 0 0
822 83 6 0.0000000000000000e+00 -2.3637170957525385e+02 -5.0822571617379459e+01 3.2605501400685682e+01 0 0 0
1019 102 6 0.0000000000000000e+00 -2.3824563776804226e+02 -7.0442700912979063e+01 1.8770390914280274e+01 1 0 0
2594 260 5 0.0000000000000000e+00 -2.4224037417344724e+02 -7.7133432970533718e+01 3.6564728681936174e+01 1 0 0
932 94 6 0.0000000000000000e+00 -2.5529741400596438e+02 -5.3927788962005486e+01 3.7240919362138278e+01 1 0 0
2413 242 6 0.0000000000000000e+00 -2.2517935286865637e+02 -5.1164316174696978e+01 1.5303362470024826e+01 0 0 0
2414 242 5 0.0000000000000000e+00 -2.3472998740374260e+02 -4.8285917438357956e+01 1.6987830926731515e+01 0 0 0
4356 381 7 0.0000000000000000e+00 -2.5574451409476680e+02 -7.1124064668334739e+01 4.2802184689208936e+01 0 0 0
2415 242 6 0.0000000000000000e+00 -2.4064398928389920e+02 -5.3754367010412885e+01 2.1990962567842431e+01 0 0 0
191 20 1 0.0000000000000000e+00 -2.2674013218591963e+02 -6.6065421588218612e+01 5.0072700000000001e+00 0 0 0
4332 380 8 0.0000000000000000e+00 -2.2939932764829425e+02 -4.4693882976154143e+01 7.8885366239227528e+00 1 0 0
2416 242 6 0.0000000000000000e+00 -2.4742136530759558e+02 -4.6707439925462026e+01 2.1413808798553305e+01 0 0 0
4331 380 7 0.0000000000000000e+00 -2.3911227292807058e+02 -4.4667049718944632e+01 7.8834334346227468e+00 1 0 0
196 20 2 0.0000000000000000e+00 -2.2306669166378251e+02 -6.4323664121281496e+01 3.4383624661496185e+01 0 0 0
4357 381 8 0.0000000000000000e+00 -2.4789037549413132e+02 -6.5335935408796857e+01 4.2831123028888271e+01 0 0 0
823 83 6 0.0000000000000000e+00 -2.2920820501656954e+02 -4.6054443103895942e+01 3.7267035781222432e+01 0 0 0
2595 260 6 0.0000000000000000e+00 -2.3822207101327785e+02 -7.0540722520235093e+01 4.2652560883783600e+01 1 0 0
194 20 3 0.0000000000000000e+00 -2.2218695330324917e+02 -7.6727834121477187e+01 2.2474359019242318e+01 0 0 0
193 20 2 0.0000000000000000e+00 -2.2212209395018272e+02 -7.2341485264274340e+01 1.3759881326797217e+01 0 0 0
5343 433 8 0.0000000000000000e+00 -2.9253487186386462e+02 -4.2607716943393569e+01 2.5004132466304757e+01 0 0 0
578 58 2 0.0000000000000000e+00 -2.7075824330607941e+02 -4.3116703579755431e+01 2.9584104913022728e+01 0 0 0
595 60 2 0.0000000000000000e+00 -2.6681305558775017e+02 -4.3684924563070737e+01 1.7034646394938608e+01 1 0 0
579 58 2 0.0000000000000000e+00 -2.6237391958596282e+02 -4.2627318298120429e+01 3.4921810800169048e+01 0 0 0
577 58 3 0.0000000000000000e+00 -2.7978035526271640e+02 -4.3682391062378379e+01 2.5062447278367667e+01 0 0 0
5342 433 8 0.0000000000000000e+00 -2.8844508455789298e+02 -3.8890231437692066e+01 1.6850535867184785e+01 0 0 0
5344 433 7 0.0000000000000000e+00 -2.8976880476332724e+02 -3.8332003647724449e+01 3.3895644502092956e+01 0 0 0
5341 433 7 0.0000000000000000e+00 -2.8489073222297122e+02 -3.0045537020325590e+01 1.6264007811715150e+01 0 0 0
1823 183 6 0.0000000000000000e+00 -2.8880317149758753e+02 -2.6902869352591502e+01 3.0738845523712076e+01 1 0 0
2419 242 6 0.0000000000000000e+00 -2.7096544337736157e+02 -3.4916800668859118e+01 9.0538065549102864e+00 0 0 0
2420 242 5 0.0000000000000000e+00 -2.7840438685623030e+02 -3.8685437568722918e+01 1.4560698400525181e+01 0 0 0
5340 433 8 0.0000000000000000e+00 -2.7900358031939550e+02 -2.4628676806671759e+01 2.1922699590973629e+01 0 0 0
2070 207 5 0.0000000000000000e+00 -2.7850218409552650e+02 -9.2310128957830404e+00 2.8708911422689191e+01 1 0 0
121 13 1 0.0000000000000000e+00 -2.8778152496580492e+02 -1.7084486461806200e+01 7.2907799999999998e+00 0 0 0
2069 207 6 0.0000000000000000e+00 -2.7785387714354096e+02 -6.3047024135410332e+00 1.8530315930008783e+01 1 0 0
4059 366 7 0.0000000000000000e+00 -2.8451595313996660e+02 -1.2456813948596491e+01 3.5667124975779096e+01 0 0 0
122 13 2 0.0000000000000000e+00 -2.8021206664814412e+02 -1.1320733328237814e+01 5.6304745468318478e+00 0 0 0
2068 207 6 0.0000000000000000e+00 -2.6776398821663645e+02 -9.1823895916940383e+00 1.8292405890085988e+01 1 0 0
4058 366 8 0.0000000000000000e+00 -2.8931223779253702e+02 -1.1750427660151061e+01 2.7241204311021193e+01 0 0 0
5339 433 8 0.0000000000000000e+00 -2.7418462119993342e+02 -1.6943658398775220e+01 2.6545918538191778e+01 0 0 0
1824 183 5 0.0000000000000000e+00 -2.9250783874352368e+02 -2.0669966505803298e+01 3.7247663654785633e+01 1 0 0
2751 276 4 0.0000000000000000e+00 -2.6688582120451343e+02 -1.0286043822601600e+01 3.1201091439350765e+01 0 0 0
575 58 2 0.0000000000000000e+00 -2.7098567307699966e+02 -2.8496209851565133e+01 3.0087754233648759e+01 0 0 0
576 58 2 0.0000000000000000e+00 -2.7834738325150170e+02 -3.5248390666522887e+01 2.9871204285024088e+01 0 0 0
4057 366 8 0.0000000000000000e+00 -2.9660838106649476e+02 -1.1506070063727398e+01 1.9738545697300797e+01 0 0 0
5345 433 8 0.0000000000000000e+00 -2.8179637816468488e+02 -4.0328843626312462e+01 3.9368671640907969e+01 0 0 0
574 58 3 0.0000000000000000e+00 -2.6491892982085199e+02 -2.0769632298394679e+01 2.9720904875549721e+01 0 0 0
596 60 2 0.0000000000000000e+00 -2.6462865766090221e+02 -3.5991485703079960e+01 2.3249690470812826e+01 1 0 0
1822 183 6 0.0000000000000000e+00 -2.9701450604285139e+02 -3.0518045252760427e+01 2.8225750704636937e+01 1 0 0
5338 433 7 0.0000000000000000e+00 -2.7746031000674390e+02 -2.1840028698136088e+01 3.4702803781611998e+01 0 0 0
4060 366 8 0.0000000000000000e+00 -2.7550127987578031e+02 -1.2143512693080641e+01 4.0397693030668187e+01 0 0 0
5337 433 8 0.0000000000000000e+00 -2.8333086205435598e+02 -2.6445898561903274e+01 4.1750876108169507e+01 0 0 0
1825 183 6 0.0000000000000000e+00 -2.9962083083237354e+02 -1.3497007418421246e+01 3.4944134371199567e+01 1 0 0
597 60 3 0.0000000000000000e+00 -2.6150186812317133e+02 -3.1998842886046585e+01 3.1917695998823365e+01 1 0 0
598 60 2 0.0000000000000000e+00 -2.6390387366952376e+02 -3.2463830464649718e+01 4.1602841763198420e+01 1 0 0
2418 242 6 0.0000000000000000e+00 -2.6189693160066957e+02 -3.6002627801161374e+01 1.2655212011959017e+01 0 0 0
5346 433 8 0.0000000000000000e+00 -2.7236569912428934e+02 -3.8124210239045055e+01 4.0300689856336980e+01 0 0 0
830 83 5 0.0000000000000000e+00 -2.6199917631334984e+02 -1.3827414971281955e+01 4.1601921414026044e+01 0 0 0
573 58 2 0.0000000000000000e+00 -2.5871449857702413e+02 -2.4151204618166616e+01 2.1966860361192001e+01 0 0 0
2131 214 4 0.0000000000000000e+00 -2.2235433497588059e+02 -3.6528593087673182e+00 2.6130503953686279e+01 0 0 0
2752 276 6 0.0000000000000000e+00 -2.5954031403525875e+02 -1.0595627180576548e+01 2.4996171400277028e+01 0 0 0
2067 207 5 0.0000000000000000e+00 -2.6005170383564996e+02 -1.4751729630818776e+01 1.6443541283884365e+01 1 0 0
3887 357 8 0.0000000000000000e+00 -2.5411152331897614e+02 -1.1141965313295051e+01 3.3991794356133006e+01 1 0 0
2417 242 5 0.0000000000000000e+00 -2.5497898889220124e+02 -4.2184883764056330e+01 1.7038730086142571e+01 0 0 0
825 83 6 0.0000000000000000e+00 -2.3171557914188105e+02 -3.5227798175303818e+01 3.4383354350511013e+01 0 0 0
4330 380 8 0.0000000000000000e+00 -2.4736428308924098e+02 -3.9494256456880763e+01 8.6667434974303372e+00 1 0 0
4329 380 8 0.0000000000000000e+00 -2.4011853124744576e+02 -3.4814371274865543e+01 1.4087289154917285e+01 1 0 0
2063 207 6 0.0000000000000000e+00 -2.2919336433427145e+02 -1.5290460738210330e+01 2.1238063744764212e+01 1 0 0
572 58 2 0.0000000000000000e+00 -2.5638205067878511e+02 -2.4262753160213375e+01 1.2294030837799861e+01 0 0 0
571 58 1 0.0000000000000000e+00 -2.5071205293914392e+02 -1.9196508833755043e+01 5.0072700000000001e+00 0 0 0
2065 207 6 0.0000000000000000e+00 -2.4698941404676521e+02 -2.1758389931197858e+01 2.0334925722306465e+01 1 0 0
2064 207 5 0.0000000000000000e+00 -2.3691514267106962e+02 -2.1380291932517636e+01 1.9886135675409342e+01 1 0 0
827 83 5 0.0000000000000000e+00 -2.4057011801706366e+02 -2.1492098648937759e+01 3.1003064351451226e+01 0 0 0
826 83 6 0.0000000000000000e+00 -2.3391531017782862e+02 -2.8423755193836616e+01 2.7525361983489208e+01 0 0 0
2066 207 6 0.0000000000000000e+00 -2.5106161303839522e+02 -1.2602932349981662e+01 1.8429685382704804e+01 1 0 0
4328 380 7 0.0000000000000000e+00 -2.3282928567613885e+02 -2.8469677434313045e+01 1.1630257858215195e+01 1 0 0
4645 397 7 0.0000000000000000e+00 -2.4730083439190068e+02 -1.3402335981835773e+01 2.7809574177581037e+01 0 0 0
4646 397 8 0.0000000000000000e+00 -2.4253748024738198e+02 -7.3386324257861668e+00 2.1566601431069323e+01 0 0 0
2753 276 6 0.0000000000000000e+00 -2.5602032348017786e+02 -2.8967361734253352e+00 2.0166462488264983e+01 0 0 0
824 83 5 0.0000000000000000e+00 -2.2733722241508127e+02 -3.7311575991141972e+01 4.2845038663306930e+01 0 0 0
1259 126 6 0.0000000000000000e+00 -2.2243727394112366e+02 -9.0392210747556856e+00 3.7911437674850362e+01 0 0 0
4327 380 8 0.0000000000000000e+00 -2.3146497636554022e+02 -1.8419099952200057e+01 1.0183929398926148e+01 1 0 0
4326 380 8 0.0000000000000000e+00 -2.4040223175969751e+02 -1.3491803012841906e+01 1.2202590365558429e+01 1 0 0
828 83 6 0.0000000000000000e+00 -2.4779706237780590e+02 -2.5179401946169214e+01 3.6329297845344890e+01 0 0 0
4006 363 8 0.0000000000000000e+00 -2.4227545804136173e+02 -8.3826353782948750e+00 3.6063686849579007e+01 0 0 0
829 83 6 0.0000000000000000e+00 -2.5726108338258229e+02 -2.2219172850037204e+01 3.8127818560203913e+01 0 0 0
4325 380 7 0.0000000000000000e+00 -2.4711746310341209e+02 -5.9104819970114066e+00 1.0792640805436053e+01 1 0 0
4005 363 7 0.0000000000000000e+00 -2.3381799801254266e+02 -1.1375872235326090e+01 3.0500647405801669e+01 0 0 0
4003 363 8 0.0000000000000000e+00 -2.2480648983207317e+02 -1.8637700168064033e+01 3.6735451303282424e+01 0 0 0
4324 380 8 0.0000000000000000e+00 -2.3720558817113996e+02 -4.5824242535093891e+00 1.1426448793656823e+01 1 0 0
51 6 1 0.0000000000000000e+00 -2.5904669442461773e+02 -2.0090970647860691e+00 5.0072700000000001e+00 0 0 0
4004 363 8 0.0000000000000000e+00 -2.3319243121982453e+02 -1.3547041656724071e+01 4.0499570179920838e+01 0 0 0
3886 357 8 0.0000000000000000e+00 -2.5815878453348409e+02 -2.3608767878762031e+00 3.3890879567232233e+01 1 0 0
4007 363 8 0.0000000000000000e+00 -2.3413497200996022e+02 -3.0807486734954028e+00 3.7388568021217665e+01 0 0 0
2755 276 6 0.0000000000000000e+00 -2.4847499981299350e+02 -2.1143216230617874e+00 2.7781804720629502e+01 0 0 0
4323 380 8 0.0000000000000000e+00 -2.2757614967472091e+02 -3.6298113218473769e+00 1.3878887478692032e+01 1 0 0
2062 207 6 0.0000000000000000e+00 -2.2337709299050888e+02 -2.4260623121808390e+01 2.2366039932639492e+01 1 0 0
580 58 3 0.0000000000000000e+00 -2.5571255947067570e+02 -4.2805795910636760e+01 4.2630594492350781e+01 0 0 0
3930 359 8 0.0000000000000000e+00 -2.8243675212306835e+02 4.3546286141732953e+00 3.1189589313592787e+01 0 0 0
3928 359 8 0.0000000000000000e+00 -2.9527494891006256e+02 5.8302530944289133e-01 2.2365219677180004e+01 0 0 0
123 13 2 0.0000000000000000e+00 -2.7958300659738899e+02 -8.7648644281299715e-01 7.6073715820710968e+00 0 0 0
128 13 2 0.0000000000000000e+00 -2.9074283560611491e+02 3.6494533796734409e+01 8.5592760838605884e+00 0 0 0
58 6 2 0.0000000000000000e+00 -2.8908289968660421e+02 3.9088092306321187e+01 2.6774766465593395e+01 0 0 0
3929 359 7 0.0000000000000000e+00 -2.8514303346445905e+02 -1.0171018608207445e+00 2.3089562136527192e+01 0 0 0
786 79 2 0.0000000000000000e+00 -2.8794358179009060e+02 1.7873614803666097e+01 1.4804333489319937e+01 1 0 0
3927 359 8 0.0000000000000000e+00 -2.9685705900753453e+02 8.3009435067618114e+00 1.6290898987970284e+01 0 0 0
784 79 3 0.0000000000000000e+00 -2.7837648616113614e+02 7.5565720024334775e+00 1.3812758288503526e+01 1 0 0
783 79 2 0.0000000000000000e+00 -2.7226485271000485e+02 1.5604477375410212e+01 1.3005732168607905e+01 1 0 0
785 79 2 0.0000000000000000e+00 -2.8727980718817884e+02 8.3397663814819669e+00 1.8525098190066963e+01 1 0 0
782 79 2 0.0000000000000000e+00 -2.6619640959781032e+02 1.4858380406422532e+01 5.8297910759427038e+00 1 0 0
124 13 3 0.0000000000000000e+00 -2.8801910112118361e+02 3.4237369890470823e+00 9.3514520187843200e+00 0 0 0
127 13 3 0.0000000000000000e+00 -2.8830405936684252e+02 2.8565365196271085e+01 3.6925576885263052e+00 0 0 0
126 13 2 0.0000000000000000e+00 -2.8661509279721673e+02 1.8736563293408256e+01 2.1442149102693500e+00 0 0 0
3021 303 4 0.0000000000000000e+00 -2.8788465586656150e+02 2.0385225862687879e+01 2.9309489306642440e+01 0 0 0
56 6 2 0.0000000000000000e+00 -2.7685204595087953e+02 2.6741060271497069e+01 3.5179587575767719e+01 0 0 0
1961 197 4 0.0000000000000000e+00 -2.8552365770139767e+02 2.8013196115629064e+01 1.4646223373977303e+01 0 0 0
55 6 2 0.0000000000000000e+00 -2.7169939342059394e+02 2.1645127011149043e+01 2.8696133374601754e+01 0 0 0
2811 282 4 0.0000000000000000e+00 -2.7005481946914261e+02 2.4082931411503100e+01 1.9163888218539022e+01 0 0 0
1962 197 6 0.0000000000000000e+00 -2.7886894011136349e+02 3.5436706627028002e+01 1.0686254907847395e+01 0 0 0
125 13 2 0.0000000000000000e+00 -2.9173670391676524e+02 9.7231604406095560e+00 2.5347955535695283e+00 0 0 0
57 6 3 0.0000000000000000e+00 -2.8448152842172021e+02 3.3364363774865893e+01 3.3338429989646947e+01 0 0 0
4064 366 8 0.0000000000000000e+00 -2.6111097967836025e+02 1.2225309947673676e+01 3.4492999360949170e+01 0 0 0
2812 282 6 0.0000000000000000e+00 -2.6928063254353327e+02 3.2035319731671670e+01 2.5132298183103568e+01 0 0 0
54 6 3 0.0000000000000000e+00 -2.6945695999728525e+02 1.3754671495332706e+01 2.3046438068125237e+01 0 0 0
3022 303 6 0.0000000000000000e+00 -2.8798427668448426e+02 2.3139486696757444e+01 3.8814938072252303e+01 0 0 0
53 6 2 0.0000000000000000e+00 -2.6636012129681507e+02 8.6869687043358592e+00 1.4935302174844718e+01 0 0 0
2461 247 4 0.0000000000000000e+00 -2.7592481871837367e+02 3.6196439790839634e+01 4.0869169856238940e+01 0 0 0
2813 282 6 0.0000000000000000e+00 -2.6843172380642028e+02 3.8708564212136267e+01 3.2466119851757519e+01 0 0 0
4063 366 8 0.0000000000000000e+00 -2.6955236547326263e+02 1.3512060840807175e+01 3.8561594784058038e+01 0 0 0
787 79 3 0.0000000000000000e+00 -2.9287711366292558e+02 2.4185600801618090e+01 2.0393767841431632e+01 1 0 0
52 6 2 0.0000000000000000e+00 -2.6710792573600344e+02 4.7333286072901286e+00 6.4145405094203687e+00 0 0 0
3931 359 8 0.0000000000000000e+00 -2.8227994102648182e+02 3.9812853554734584e+00 4.1276002126309777e+01 0 0 0
3811 353 8 0.0000000000000000e+00 -2.6124515176266289e+02 2.9073168243943844e+01 3.4663442213722853e+01 0 0 0
3810 353 8 0.0000000000000000e+00 -2.6158079808006352e+02 2.2066132833793954e+01 2.7107035941809087e+01 0 0 0
3523 337 9 0.0000000000000000e+00 -2.9862878887887416e+02 9.8170972233488492e+00 2.8706897546714451e+01 0 0 0
1963 197 6 0.0000000000000000e+00 -2.7018246611568560e+02 4.0488528385976750e+01 1.1968387344363324e+01 0 0 0
3926 359 7 0.0000000000000000e+00 -2.9865235232610831e+02 1.8081964992746332e+01 1.3949586345626260e+01 0 0 0
3522 337 8 0.0000000000000000e+00 -2.9948201435930315e+02 1.7857239444887725e+01 3.4925276545871228e+01 0 0 0
3885 357 7 0.0000000000000000e+00 -2.5595796238747198e+02 5.2822209936477318e+00 2.7016215445939604e+01 1 0 0
3812 353 7 0.0000000000000000e+00 -2.5871870000976958e+02 3.6967893011793514e+01 4.0756738918726128e+01 0 0 0
4647 397 8 0.0000000000000000e+00 -2.3606794662456093e+02 -6.9568660252457490e-02 2.0611192887396037e+01 0 0 0
781 79 1 0.0000000000000000e+00 -2.5773349727962102e+02 9.2847203904017661e+00 8.4781800000000000e+00 1 0 0
4065 366 7 0.0000000000000000e+00 -2.5979733829907991e+02 2.0858951282757463e+01 3.9673528107312251e+01 0 0 0
1252 126 6 0.0000000000000000e+00 -2.2842626940424196e+02 3.4884589561919199e+01 1.9463044161764333e+01 0 0 0
3809 353 7 0.0000000000000000e+00 -2.5875209912141105e+02 2.1448415895707104e+01 1.7739112952992951e+01 0 0 0
2754 276 5 0.0000000000000000e+00 -2.4917455274027807e+02 2.8577894885367621e+00 1.8146333888478839e+01 0 0 0
4066 366 8 0.0000000000000000e+00 -2.4950089621442407e+02 2.1439438311755797e+01 3.9088221929299706e+01 0 0 0
4652 397 8 0.0000000000000000e+00 -2.3434131936624189e+02 3.4906399495277590e+01 3.3210038920927460e+01 0 0 0
2140 214 5 0.0000000000000000e+00 -2.5561088143757118e+02 2.3297382484284753e+01 7.0886408454497492e+00 0 0 0
2756 276 6 0.0000000000000000e+00 -2.4981833694809896e+02 2.9593197648413785e+00 3.6263884998361611e+01 0 0 0
2138 214 6 0.0000000000000000e+00 -2.4464908866531033e+02 1.1616994720541230e+01 1.0485530116258005e+01 0 0 0
2137 214 5 0.0000000000000000e+00 -2.3723994871549471e+02 9.5065279947948031e+00 1.6367838635722599e+01 0 0 0
4067 366 8 0.0000000000000000e+00 -2.4846586400901171e+02 1.3971808020843675e+01 3.2497597638376035e+01 0 0 0
4069 366 8 0.0000000000000000e+00 -2.4117192686761206e+02 6.6608566337062349e+00 2.8883912595829933e+01 0 0 0
2139 214 6 0.0000000000000000e+00 -2.4697247686251086e+02 1.9242781188042624e+01 4.3215082155041049e+00 0 0 0
5629 490 11 0.0000000000000000e+00 -2.4076309461026148e+02 2.7326035541111903e+01 1.6218930023660061e+01 0 0 0
5630 490 10 0.0000000000000000e+00 -2.3963701238163361e+02 2.1974613507015807e+01 2.4760946303335565e+01 0 0 0
4074 366 9 0.0000000000000000e+00 -2.5070475275881029e+02 2.4296068070288332e+01 2.3587733632500690e+01 0 0 0
4068 366 7 0.0000000000000000e+00 -2.4456995809926457e+02 1.3815314594629992e+01 2.3012246280009315e+01 0 0 0
5628 490 10 0.0000000000000000e+00 -2.4505579252976906e+02 3.6365824927616394e+01 1.4646957959112493e+01 0 0 0
4070 366 8 0.0000000000000000e+00 -2.3856824495413349e+02 1.0751382524808879e+01 3.7697964785239193e+01 0 0 0
4073 366 8 0.0000000000000000e+00 -2.5017528980375874e+02 3.4150642472862764e+01 2.7403876343450701e+01 0 0 0
4072 366 8 0.0000000000000000e+00 -2.4540980335003334e+02 2.8212363540117277e+01 3.3670974913089083e+01 0 0 0
4071 366 7 0.0000000000000000e+00 -2.3927461437679207e+02 2.0457004930694090e+01 3.6722250407433577e+01 0 0 0
2136 214 6 0.0000000000000000e+00 -2.2900436514159779e+02 1.3922805670693567e+01 2.0155821651696822e+01 0 0 0
2817 282 5 0.0000000000000000e+00 -2.4880708472868315e+02 3.6612116359816888e+01 3.7653872974848667e+01 0 0 0
4648 397 7 0.0000000000000000e+00 -2.2896223256726643e+02 5.0329959259120560e+00 2.4808871474041613e+01 0 0 0
1253 126 6 0.0000000000000000e+00 -2.2731258367141959e+02 2.7073800758369380e+01 2.4877233307987975e+01 0 0 0
4649 397 8 0.0000000000000000e+00 -2.2695066876628036e+02 1.3731058056007809e+01 2.9398717114300986e+01 0 0 0
4651 397 7 0.0000000000000000e+00 -2.2664887495912188e+02 3.0049027112793198e+01 3.6357793430748679e+01 0 0 0
4663 397 9 0.0000000000000000e+00 -2.3693165736998986e+02 3.3908379984479453e+01 6.9739709569122414e+00 0 0 0
4650 397 8 0.0000000000000000e+00 -2.2793179619548889e+02 2.0449328462887511e+01 3.5946713495152324e+01 0 0 0
4008 363 7 0.0000000000000000e+00 -2.2798746874360663e+02 4.6461470201657438e+00 3.9115136986309594e+01 0 0 0
4653 397 8 0.0000000000000000e+00 -2.3815466799919650e+02 4.1099658709525976e+01 2.6238231805322595e+01 0 0 0
4352 381 8 0.0000000000000000e+00 -2.7620293924200632e+02 -6.8389851245131425e+01 4.4822716164468872e+01 0 0 0
5646 496 10 0.0000000000000000e+00 -2.6461593692608375e+02 -4.9412376851747567e+01 4.6130149269960462e+01 1 0 0
4353 381 7 0.0000000000000000e+00 -2.6980439985294527e+02 -7.5944369841344496e+01 4.7481751127622701e+01 0 0 0
4350 381 7 0.0000000000000000e+00 -2.8389944319268744e+02 -5.6979425023102834e+01 4.5082848722658909e+01 0 0 0
4349 381 8 0.0000000000000000e+00 -2.8521467759903538e+02 -6.1562287755946990e+01 5.3734284437069839e+01 0 0 0
4348 381 8 0.0000000000000000e+00 -2.8670561736071772e+02 -6.2855732760878908e+01 6.2850069426849331e+01 0 0 0
937 94 5 0.0000000000000000e+00 -2.7260486191952356e+02 -5.9586308167307202e+01 6.8857938438431191e+01 1 0 0
935 94 6 0.0000000000000000e+00 -2.7290199670873722e+02 -6.0519300449290782e+01 5.5559864099037284e+01 1 0 0
936 94 6 0.0000000000000000e+00 -2.7933346649687132e+02 -5.6597711058674463e+01 6.2202868042612273e+01 1 0 0
4347 381 7 0.0000000000000000e+00 -2.8350863189977264e+02 -6.0403395438451433e+01 7.2184178372170962e+01 0 0 0
1857 186 5 0.0000000000000000e+00 -2.8121585654552996e+02 -4.7969210554138037e+01 5.0922625902579007e+01 1 0 0
4211 374 7 0.0000000000000000e+00 -2.6695238237332109e+02 -5.2757617545527680e+01 5.6087061742050601e+01 0 0 0
938 94 6 0.0000000000000000e+00 -2.7163890056978511e+02 -5.2890516938605735e+01 7.5965272509774266e+01 1 0 0
1855 186 6 0.0000000000000000e+00 -2.9354893658265377e+02 -5.0557018095703341e+01 4.7854698999322586e+01 1 0 0
4213 374 8 0.0000000000000000e+00 -2.6117597839829943e+02 -5.3406752536981223e+01 7.1868649580096275e+01 0 0 0
1860 186 5 0.0000000000000000e+00 -2.8149519528214176e+02 -4.8767976941175888e+01 7.8223221796448229e+01 1 0 0
4212 374 8 0.0000000000000000e+00 -2.6569091822234105e+02 -4.7762698223493430e+01 6.4837220787434376e+01 0 0 0
934 94 5 0.0000000000000000e+00 -2.6652210250861498e+02 -6.0157117864063139e+01 4.7806919110503536e+01 1 0 0
1859 186 6 0.0000000000000000e+00 -2.7864161469633518e+02 -4.7459980396919931e+01 6.9168405849165921e+01 1 0 0
4210 374 8 0.0000000000000000e+00 -2.6187745483778298e+02 -6.1848453821686597e+01 5.6737415860100690e+01 0 0 0
1858 186 6 0.0000000000000000e+00 -2.7665161139893138e+02 -4.5411278514509654e+01 5.9319412902915410e+01 1 0 0
4346 381 8 0.0000000000000000e+00 -2.8562281292910188e+02 -5.7333711286915424e+01 8.1367688581490611e+01 0 0 0
939 94 6 0.0000000000000000e+00 -2.6684180519664949e+02 -4.7495579786100109e+01 8.2302702581946221e+01 1 0 0
4345 381 8 0.0000000000000000e+00 -2.9211319615183305e+02 -4.9998276067146165e+01 8.4557578986425355e+01 0 0 0
4358 381 8 0.0000000000000000e+00 -2.4013348867153528e+02 -5.8755147119840309e+01 4.4226916194036313e+01 0 0 0
5559 467 10 0.0000000000000000e+00 -2.2312044774944607e+02 -6.6627736495888868e+01 7.3581126285319115e+01 0 0 0
931 94 4 0.0000000000000000e+00 -2.4793638384138166e+02 -5.1561394471374072e+01 4.3036118534931767e+01 1 0 0
4214 374 7 0.0000000000000000e+00 -2.5341877526058838e+02 -5.8134902164823949e+01 7.6653614994379069e+01 0 0 0
5648 496 10 0.0000000000000000e+00 -2.4805222909215382e+02 -5.8350078672816956e+01 5.3301469542664243e+01 1 0 0
4359 381 9 0.0000000000000000e+00 -2.3910532308470221e+02 -5.2103656453227607e+01 5.1470527506536648e+01 0 0 0
4209 374 8 0.0000000000000000e+00 -2.5519805721619454e+02 -6.8317499353437299e+01 5.6223753982491203e+01 0 0 0
2598 260 6 0.0000000000000000e+00 -2.4739923610221993e+02 -5.8209308156302576e+01 6.3405437948632020e+01 1 0 0
2597 260 5 0.0000000000000000e+00 -2.4387818340149590e+02 -6.6854323079634824e+01 5.9981110223261936e+01 1 0 0
2596 260 6 0.0000000000000000e+00 -2.3699244838197575e+02 -6.7116483490987321e+01 5.2604845513699644e+01 1 0 0
5560 467 11 0.0000000000000000e+00 -2.3075389065499618e+02 -6.2810207096639765e+01 6.8336790781203092e+01 0 0 0
3694 346 9 0.0000000000000000e+00 -2.3948588622788472e+02 -4.7786551605457703e+01 6.5966081767073305e+01 1 0 0
5561 467 10 0.0000000000000000e+00 -2.3355174356053493e+02 -5.6266357136064030e+01 6.1536026416392595e+01 0 0 0
2599 260 6 0.0000000000000000e+00 -2.4133067472434706e+02 -5.9627082135131914e+01 7.0366282974700127e+01 1 0 0
2600 260 5 0.0000000000000000e+00 -2.4112597234530239e+02 -5.4184994500092934e+01 7.8401567720630808e+01 1 0 0
4208 374 7 0.0000000000000000e+00 -2.5128367191832913e+02 -7.4688484590055438e+01 6.2999511226752581e+01 0 0 0
5647 496 11 0.0000000000000000e+00 -2.5664283254174694e+02 -5.5239309100952241e+01 4.8362347902291923e+01 1 0 0
2767 277 5 0.0000000000000000e+00 -2.2556251085658457e+02 -5.0659597718274348e+01 5.2518636928830112e+01 0 0 0
4215 374 8 0.0000000000000000e+00 -2.5545105643947596e+02 -5.0638538094806322e+01 8.2282492494623810e+01 0 0 0
4218 374 8 0.0000000000000000e+00 -2.3489251779676130e+02 -4.4736146544090950e+01 8.2888998401342562e+01 0 0 0
2766 277 6 0.0000000000000000e+00 -2.2285604591336079e+02 -6.0535651642604776e+01 5.1428754968874500e+01 0 0 0
1856 186 6 0.0000000000000000e+00 -2.8985133853014912e+02 -4.3426640152701239e+01 5.4122819974152982e+01 1 0 0
5347 433 9 0.0000000000000000e+00 -2.7508423914496296e+02 -3.5255239927097556e+01 5.0420188902246892e+01 0 0 0
4061 366 8 0.0000000000000000e+00 -2.7203176096205550e+02 -3.8271214240327964e+00 4.3657289610059472e+01 0 0 0
3153 316 6 0.0000000000000000e+00 -2.9498726724743415e+02 -1.6950993414287726e+01 6.5846888334253450e+01 1 0 0
5332 433 7 0.0000000000000000e+00 -2.8705342249104098e+02 -4.2141944545936276e+01 7.0167473182890760e+01 0 0 0
5336 433 8 0.0000000000000000e+00 -2.8469341629939203e+02 -1.9938081097094244e+01 4.8376933420655575e+01 0 0 0
3155 316 6 0.0000000000000000e+00 -2.8063437833994527e+02 -1.8717749988208308e+01 7.5801372994154605e+01 1 0 0
3154 316 5 0.0000000000000000e+00 -2.8740318347103863e+02 -1.2881411411458227e+01 7.1081532945180939e+01 1 0 0
5331 433 8 0.0000000000000000e+00 -2.8141642566082777e+02 -3.5135654195133640e+01 7.4904081367221082e+01 0 0 0
5330 433 8 0.0000000000000000e+00 -2.7162302372938746e+02 -3.5497641508537171e+01 7.7514119351499758e+01 0 0 0
5335 433 7 0.0000000000000000e+00 -2.8404945728007721e+02 -1.7171827288456441e+01 5.7786115371188750e+01 0 0 0
3160 316 5 0.0000000000000000e+00 -2.7165557428586658e+02 -1.4570479800155105e+01 6.3714544899988617e+01 1 0 0