LAMMPS data file via write_data, version 5 Jun 2019, timestep = 420000000

5660 atoms
11 atom types
5946 bonds
7 bond types
4660 angles
4 angle types

-3.0000000000000000e+02 3.0000000000000000e+02 xlo xhi
-3.0000000000000000e+02 3.0000000000000000e+02 ylo yhi
0.0000000000000000e+00 3.0000000000000000e+02 zlo zhi

Masses

1 1000
2 450
3 450
4 11000
5 7000
6 450
7 450
8 450
9 450
10 450
11 20000

Pair Coeffs # lj/cut

1 0.24 10
2 0.24 10
3 0.24 10
4 0.24 10
5 0.24 10
6 0.24 10
7 0.24 10
8 0.24 10
9 0.24 10
10 0.24 10
11 0.24 30

Angle Coeffs # cosine

1 1
2 1
3 1
4 1

Atoms # full

1012 102 6 0.0000000000000000e+00 -2.8661718955625543e+02 -1.2570119020969423e+02 3.3333585031166642e+01 1 0 0
1013 102 6 0.0000000000000000e+00 -2.9541499499722613e+02 -1.2663668675118664e+02 3.8702840981306529e+01 1 0 0
1011 102 4 0.0000000000000000e+00 -2.7757655657689889e+02 -1.2379836134437335e+02 2.9691572062693897e+01 1 0 0
577 58 3 0.0000000000000000e+00 -2.7768641033752311e+02 -1.2187219872813365e+02 4.1047774199015628e+01 0 0 0
580 58 3 0.0000000000000000e+00 -2.6535327509705513e+02 -1.0800425657185323e+02 2.8391008818930136e+01 0 0 0
821 83 4 0.0000000000000000e+00 -2.7250959233468262e+02 -1.0263619440842879e+02 2.0742646284766632e+01 0 0 0
822 83 6 0.0000000000000000e+00 -2.7937067297952058e+02 -1.0483565107910105e+02 2.8367160168856859e+01 0 0 0
824 83 5 0.0000000000000000e+00 -2.8699257729045746e+02 -9.3172617811587187e+01 3.6472848157209569e+01 0 0 0
4515 390 7 0.0000000000000000e+00 -2.7247375193714788e+02 -9.7781362373920587e+01 5.6707114436333379e+00 1 0 0
4513 390 8 0.0000000000000000e+00 -2.8612881885431864e+02 -9.9637609344649320e+01 1.9521742136852996e+01 1 0 0
4514 390 8 0.0000000000000000e+00 -2.8030627912279846e+02 -1.0152078578400894e+02 1.1138942308623704e+01 1 0 0
4516 390 8 0.0000000000000000e+00 -2.7039745937086616e+02 -8.8608677232216323e+01 2.6568744351948461e+00 1 0 0
4512 390 7 0.0000000000000000e+00 -2.8910768971723320e+02 -1.0036973690095793e+02 2.8904032895119556e+01 1 0 0
576 58 2 0.0000000000000000e+00 -2.8436503671233908e+02 -1.1420421832559970e+02 3.8533508443390652e+01 0 0 0
579 58 2 0.0000000000000000e+00 -2.6785522069478998e+02 -1.1598789238610962e+02 3.3595150583769545e+01 0 0 0
823 83 6 0.0000000000000000e+00 -2.7870861889508677e+02 -9.6402585109987442e+01 3.2623021958435736e+01 0 0 0
575 58 2 0.0000000000000000e+00 -2.9083791527304260e+02 -1.1241787123699689e+02 3.0418709513694250e+01 0 0 0
578 58 2 0.0000000000000000e+00 -2.6915266326083633e+02 -1.2537901133124680e+02 3.6911588734234790e+01 0 0 0
572 58 2 0.0000000000000000e+00 -2.9487430609084316e+02 -1.1758359190822225e+02 4.4314031686764164e+00 0 0 0
4517 390 8 0.0000000000000000e+00 -2.7682272557739543e+02 -8.8350668872623928e+01 9.6916178242642168e+00 1 0 0
4519 390 8 0.0000000000000000e+00 -2.6319797805768536e+02 -8.7577528354410546e+01 1.6428848848381570e+01 1 0 0
4524 390 7 0.0000000000000000e+00 -2.8743961939668009e+02 -8.9974030653898552e+01 1.4312911745195464e+01 1 0 0
571 58 1 0.0000000000000000e+00 -2.9986984440022417e+02 -1.0938378238294482e+02 5.0072700000000001e+00 0 0 0
574 58 3 0.0000000000000000e+00 -2.9777270562362133e+02 -1.1390886268755878e+02 2.3302329198401260e+01 0 0 0
573 58 2 0.0000000000000000e+00 -2.9852084844165819e+02 -1.1620520859249032e+02 1.3679763930728228e+01 0 0 0
4525 390 8 0.0000000000000000e+00 -2.9718915873478352e+02 -8.8988732649487943e+01 1.5732485622616551e+01 1 0 0
1810 181 5 0.0000000000000000e+00 -2.2860066243680748e+02 -9.4617222230091954e+01 2.9874514709665693e+01 0 0 0
1809 181 6 0.0000000000000000e+00 -2.3139993312333664e+02 -1.0220111339728032e+02 3.6171904724011895e+01 0 0 0
1808 181 6 0.0000000000000000e+00 -2.2403501398671642e+02 -1.0965025249989147e+02 3.6608673270424731e+01 0 0 0
825 83 6 0.0000000000000000e+00 -2.8681612389925829e+02 -8.4279987852141815e+01 3.9253710215692536e+01 0 0 0
751 76 1 0.0000000000000000e+00 -2.9590382719584409e+02 -8.1979467991455877e+01 6.8810700000000002e+00 0 0 0
4518 390 7 0.0000000000000000e+00 -2.7119515979453394e+02 -8.2350688409267363e+01 1.4791038730165955e+01 1 0 0
4520 390 8 0.0000000000000000e+00 -2.6137944907235902e+02 -8.1640567988053206e+01 2.3636925760264482e+01 1 0 0
826 83 6 0.0000000000000000e+00 -2.9557486388836344e+02 -8.4074474641847459e+01 3.4509927893422805e+01 0 0 0
4522 390 8 0.0000000000000000e+00 -2.7712220561920770e+02 -7.5205400497618939e+01 2.1205063731704925e+01 1 0 0
4523 390 8 0.0000000000000000e+00 -2.8191702117044173e+02 -8.1419130503185357e+01 1.3891410211663658e+01 1 0 0
4521 390 7 0.0000000000000000e+00 -2.6961278074591684e+02 -7.7586355477109706e+01 2.8062591010575659e+01 1 0 0
827 83 5 0.0000000000000000e+00 -2.9504435802824611e+02 -8.1451844278242419e+01 2.5648999025312705e+01 0 0 0
828 83 6 0.0000000000000000e+00 -2.8545649858718855e+02 -8.4598841238331644e+01 2.4725760899725678e+01 0 0 0
830 83 5 0.0000000000000000e+00 -2.7086921819095704e+02 -8.2418582786439501e+01 3.7797466789018756e+01 0 0 0
1431 144 4 0.0000000000000000e+00 -2.9127574937368945e+02 -6.8360730154983329e+01 2.3411400579446585e+01 0 0 0
1432 144 6 0.0000000000000000e+00 -2.8251459960359614e+02 -6.5396246153527429e+01 2.7082443467847753e+01 0 0 0
1434 144 5 0.0000000000000000e+00 -2.8961290409030869e+02 -5.8387773792631585e+01 2.8940876514653255e+01 0 0 0
1433 144 6 0.0000000000000000e+00 -2.8510140717702018e+02 -6.3038779458706699e+01 3.6456316205299650e+01 0 0 0
829 83 6 0.0000000000000000e+00 -2.7842357331750856e+02 -8.4652868714501210e+01 3.2071372489768926e+01 0 0 0
2599 260 6 0.0000000000000000e+00 -2.6907546146071456e+02 -5.8482752535667068e+01 3.6370972807415491e+01 1 0 0
3893 357 8 0.0000000000000000e+00 -2.8763973523538675e+02 -4.8294433420669478e+01 3.0530411406472339e+01 1 0 0
753 76 2 0.0000000000000000e+00 -2.9909103341351641e+02 -6.8035141871448616e+01 1.2435263342602495e+01 0 0 0
2600 260 5 0.0000000000000000e+00 -2.5929944912575587e+02 -5.6799397891839959e+01 3.7459832614040998e+01 1 0 0
5330 433 8 0.0000000000000000e+00 -2.6047290518719490e+02 -4.5284703888871277e+01 3.7902251881111262e+01 0 0 0
3892 357 8 0.0000000000000000e+00 -2.7911351442597595e+02 -4.2902597860860404e+01 3.0829306643519235e+01 1 0 0
1435 144 6 0.0000000000000000e+00 -2.9766057924377486e+02 -5.4119652831539135e+01 2.4070690199443316e+01 0 0 0
2598 260 6 0.0000000000000000e+00 -2.6397288946194544e+02 -6.5226050670050952e+01 4.1841059636183623e+01 1 0 0
756 76 2 0.0000000000000000e+00 -2.9516958324092855e+02 -6.2529122615507390e+01 3.5578631065827445e+01 0 0 0
3894 357 7 0.0000000000000000e+00 -2.9637247819209017e+02 -4.3650893839403984e+01 3.0039600614967448e+01 1 0 0
796 80 2 0.0000000000000000e+00 -2.2211956982583828e+02 -6.9574886267497916e+01 3.8456365779114151e+01 0 0 0
2591 260 4 0.0000000000000000e+00 -2.3273926122115500e+02 -5.5081070658659016e+01 2.4883108199542853e+01 1 0 0
2592 260 6 0.0000000000000000e+00 -2.4040303027573424e+02 -4.9588285374112765e+01 2.8853058303871137e+01 1 0 0
2593 260 6 0.0000000000000000e+00 -2.4865294542307643e+02 -4.8240090892021314e+01 3.3839239978325544e+01 1 0 0
794 80 3 0.0000000000000000e+00 -2.2274467809099093e+02 -5.9212668960825617e+01 2.3120004054647637e+01 0 0 0
795 80 2 0.0000000000000000e+00 -2.2265405544337403e+02 -6.1838362863342176e+01 3.2583387343930220e+01 0 0 0
798 80 2 0.0000000000000000e+00 -2.2547958362945778e+02 -8.2975966831842214e+01 3.9429272991828526e+01 0 0 0
4351 381 8 0.0000000000000000e+00 -2.2160948704921725e+02 -4.5903323162252789e+01 2.2467530798460857e+01 0 0 0
1830 183 5 0.0000000000000000e+00 -2.9887437063728828e+02 -3.2529191076222496e+01 2.8580021284042743e+01 1 0 0
3891 357 7 0.0000000000000000e+00 -2.7701207363687598e+02 -3.5059404004932041e+01 2.4843673199783300e+01 1 0 0
3890 357 8 0.0000000000000000e+00 -2.8041890675373963e+02 -2.6868735059561342e+01 2.0045645146026640e+01 1 0 0
1825 183 6 0.0000000000000000e+00 -2.9278497078801610e+02 -1.1418380166552074e+01 1.6598201393202007e+01 1 0 0
597 60 3 0.0000000000000000e+00 -2.9060563061263139e+02 -5.7029620934476792e+00 3.0637993969627580e+01 1 0 0
1824 183 5 0.0000000000000000e+00 -2.8659495857239733e+02 -4.3225740807754400e+00 1.9453672199631036e+01 1 0 0
3889 357 8 0.0000000000000000e+00 -2.8956481116920276e+02 -2.3800390602760835e+01 1.6085618901693135e+01 1 0 0
1821 183 4 0.0000000000000000e+00 -2.8001743631342413e+02 -5.7694322194188237e+00 2.7596227462447075e+01 1 0 0
2554 256 5 0.0000000000000000e+00 -2.8090482830443432e+02 -3.2908893527289564e+01 3.4911001318779938e+01 0 0 0
2551 256 4 0.0000000000000000e+00 -2.9362651755578679e+02 -2.0924545936557386e+01 2.9754165831332902e+01 0 0 0
195 20 2 0.0000000000000000e+00 -2.6140205473556654e+02 -2.1115296309305137e+01 3.8185193809313262e+01 0 0 0
194 20 3 0.0000000000000000e+00 -2.6527102827543627e+02 -1.6243079418417789e+01 3.0671457549330402e+01 0 0 0
2552 256 6 0.0000000000000000e+00 -2.8477371059908245e+02 -1.9093331430284380e+01 2.5140382081466665e+01 0 0 0
2553 256 6 0.0000000000000000e+00 -2.7877769245854080e+02 -2.4694741723015436e+01 3.0418675385506177e+01 0 0 0
761 77 1 0.0000000000000000e+00 -2.6815784838051189e+02 -3.8532511994567969e+01 5.0072700000000001e+00 0 0 0
600 60 3 0.0000000000000000e+00 -2.8944570293302161e+02 -2.1060377191935707e+01 4.0247822158196030e+01 1 0 0
598 60 2 0.0000000000000000e+00 -2.8628714729030992e+02 -1.3022718355039180e+01 3.5739775802112014e+01 1 0 0
3888 357 7 0.0000000000000000e+00 -2.9927092768048982e+02 -2.2921451069689844e+01 1.8319035128774011e+01 1 0 0
193 20 2 0.0000000000000000e+00 -2.6604361450268698e+02 -1.5516747617941714e+01 2.0919764533044130e+01 0 0 0
762 77 2 0.0000000000000000e+00 -2.6113668722434755e+02 -3.5178818736364121e+01 1.1621967688612061e+01 0 0 0
3895 357 8 0.0000000000000000e+00 -2.9442498545395216e+02 -4.0269342638429862e+01 3.9462209219238879e+01 1 0 0
192 20 2 0.0000000000000000e+00 -2.6260758798200317e+02 -1.9372244191268560e+01 1.2027525903285754e+01 0 0 0
2555 256 6 0.0000000000000000e+00 -2.7265899463868146e+02 -2.9371287891330137e+01 3.9192287816769316e+01 0 0 0
3023 303 6 0.0000000000000000e+00 -2.8562947082175913e+02 -3.5900606202040599e+00 4.0349043525702413e+01 0 0 0
5331 433 8 0.0000000000000000e+00 -2.6335229878345956e+02 -3.5771534466419595e+01 3.7386363778177184e+01 0 0 0
596 60 2 0.0000000000000000e+00 -2.9849785452100582e+02 -4.7293553547079026e-01 2.9718529303271328e+01 1 0 0
1823 183 6 0.0000000000000000e+00 -2.7692513815908154e+02 -4.2307161449014261e+00 1.7342229254318156e+01 1 0 0
4056 366 7 0.0000000000000000e+00 -2.9975745023172453e+02 -1.8287256003264535e+01 3.8647777819599391e+01 0 0 0
4057 366 8 0.0000000000000000e+00 -2.9973173839980308e+02 -9.2169643129138716e+00 3.3788580488470821e+01 0 0 0
763 77 2 0.0000000000000000e+00 -2.5457228395988082e+02 -2.8187529981136525e+01 1.5558168161372924e+01 0 0 0
767 77 3 0.0000000000000000e+00 -2.5339609541988301e+02 -6.1470150544533411e+00 3.6150379604876214e+01 0 0 0
1039 104 6 0.0000000000000000e+00 -2.3195322539488373e+02 -3.4403893757340867e+01 1.8687957381134046e+00 0 0 0
2770 277 5 0.0000000000000000e+00 -2.4907567599207749e+02 -3.7016829372508454e+01 3.2048574489680206e+01 0 0 0
766 77 2 0.0000000000000000e+00 -2.5281104072484612e+02 -2.7026905519226090e+00 2.6645109402803524e+01 0 0 0
4352 381 8 0.0000000000000000e+00 -2.2356688449974840e+02 -3.5836447210838209e+01 2.3471383996333511e+01 0 0 0
5332 433 7 0.0000000000000000e+00 -2.5604950211296978e+02 -2.8852238247035892e+01 3.4403726642559988e+01 0 0 0
1032 104 6 0.0000000000000000e+00 -2.2258805128817221e+02 -3.4411950038866546e+00 2.8471142662280439e+01 0 0 0
1036 104 6 0.0000000000000000e+00 -2.2451928899232527e+02 -2.4246836626167706e+01 1.2588584692457955e+01 0 0 0
1040 104 5 0.0000000000000000e+00 -2.2647318511558996e+02 -4.0475086780129473e+01 8.3009810993796815e+00 0 0 0
5333 433 8 0.0000000000000000e+00 -2.5002944384999276e+02 -2.9413456926033781e+01 4.2168317396430581e+01 0 0 0
765 77 2 0.0000000000000000e+00 -2.5297508184865569e+02 -1.0117823489127225e+01 2.1057322726309014e+01 0 0 0
980 98 5 0.0000000000000000e+00 -2.2345345920283904e+02 -4.1050465927231237e+01 3.2501591826415705e+01 0 0 0
191 20 1 0.0000000000000000e+00 -2.5538106123085777e+02 -1.9654684422520180e+01 5.0072700000000001e+00 0 0 0
764 77 3 0.0000000000000000e+00 -2.5565906554342686e+02 -1.9425771700196229e+01 2.0079355875566080e+01 0 0 0
1031 104 4 0.0000000000000000e+00 -2.2784456526531076e+02 -5.3335245814957744e-01 2.0061485052571822e+01 0 0 0
2761 277 4 0.0000000000000000e+00 -2.4644908014614489e+02 -1.6207355450729285e+01 1.4662974025420251e+01 0 0 0
2769 277 6 0.0000000000000000e+00 -2.4276429605043506e+02 -2.9848643325525220e+01 2.9994576125239018e+01 0 0 0
2768 277 6 0.0000000000000000e+00 -2.3726645788206818e+02 -2.1504232377347094e+01 2.8470958607616108e+01 0 0 0
2767 277 5 0.0000000000000000e+00 -2.3244461041590944e+02 -1.3293695604368381e+01 3.1519197721718864e+01 0 0 0
2766 277 6 0.0000000000000000e+00 -2.3779778663612203e+02 -6.0348295888290329e+00 3.6327854880122231e+01 0 0 0
1037 104 5 0.0000000000000000e+00 -2.3357525937619417e+02 -2.7775963531816149e+01 1.0248112840479454e+01 0 0 0
4353 381 7 0.0000000000000000e+00 -2.2148123667838169e+02 -2.8269030742499169e+01 3.0298721932054612e+01 0 0 0
4354 381 8 0.0000000000000000e+00 -2.2274274857089907e+02 -1.9875580635687825e+01 3.5862779016534830e+01 0 0 0
1038 104 6 0.0000000000000000e+00 -2.3975879915157989e+02 -2.7715715464984530e+01 2.0084073088125640e+00 0 0 0
2762 277 6 0.0000000000000000e+00 -2.4620057489389654e+02 -5.5682207090801477e+00 1.5228754584306287e+01 0 0 0
4328 380 7 0.0000000000000000e+00 -2.4163864503091531e+02 -1.6015110271471951e+01 3.7488954471288238e+01 1 0 0
4327 380 8 0.0000000000000000e+00 -2.3392100773137204e+02 -2.2723972171548688e+01 3.7945900397565850e+01 1 0 0
4379 383 7 0.0000000000000000e+00 -2.2600111310982032e+02 -4.3119801167089173e+00 3.8569800841567037e+01 0 0 0
311 32 1 0.0000000000000000e+00 -2.1824096780557235e+02 -8.0266772732741281e+00 6.2093100000000003e+00 0 0 0
4355 381 8 0.0000000000000000e+00 -2.1919365471074678e+02 -1.1266158400930971e+01 3.8775951688301859e+01 0 0 0
312 32 2 0.0000000000000000e+00 -2.1990877745931081e+02 -4.0680664437245122e+00 1.5286174452094517e+01 0 0 0
1822 183 6 0.0000000000000000e+00 -2.7620855922989074e+02 2.7447259611071551e+00 2.5045608034695089e+01 1 0 0
781 79 1 0.0000000000000000e+00 -2.7799773406374203e+02 3.9634497425175134e+01 8.4781800000000000e+00 1 0 0
3022 303 6 0.0000000000000000e+00 -2.9267900590122889e+02 3.0797609432834090e+00 3.7574023877220867e+01 0 0 0
2329 233 6 0.0000000000000000e+00 -2.9063724319276827e+02 2.1302174712280504e+01 2.2196869617444893e+01 0 0 0
3021 303 4 0.0000000000000000e+00 -2.9477890889081283e+02 1.1872736813145830e+01 3.2351817815999190e+01 0 0 0
784 79 3 0.0000000000000000e+00 -2.7705327010240308e+02 3.1223672121934520e+01 2.2168660035248390e+01 1 0 0
783 79 2 0.0000000000000000e+00 -2.7497390653106294e+02 4.0655650736196009e+01 2.4245239337651306e+01 1 0 0
785 79 2 0.0000000000000000e+00 -2.8141629317514355e+02 2.5124764300150932e+01 2.8795012888494416e+01 1 0 0
3514 337 7 0.0000000000000000e+00 -2.9192578566170675e+02 2.8129100005783148e+01 3.9259830219927480e+01 0 0 0
2330 233 5 0.0000000000000000e+00 -2.9137458344613748e+02 1.1464651046170580e+01 2.1498944472078442e+01 0 0 0
3513 337 8 0.0000000000000000e+00 -2.8374184586245582e+02 3.2204546231879199e+01 3.4947496456234013e+01 0 0 0
3512 337 8 0.0000000000000000e+00 -2.8640628727052592e+02 4.0001895478773584e+01 2.9772901306061335e+01 0 0 0
786 79 2 0.0000000000000000e+00 -2.8351897895786863e+02 2.0615747446283773e+01 3.7275769462314358e+01 1 0 0
3997 362 8 0.0000000000000000e+00 -2.6563474650328595e+02 1.6026668296847184e+01 3.6969411579829895e+01 0 0 0
3998 362 9 0.0000000000000000e+00 -2.7156796658579663e+02 2.3179827588539343e+01 3.5314642907822368e+01 0 0 0
2327 233 5 0.0000000000000000e+00 -2.9785411837203344e+02 3.3024371789119769e+01 3.1609413374448042e+01 0 0 0
787 79 3 0.0000000000000000e+00 -2.9127134413566148e+02 1.6514013545212215e+01 4.2009338764329492e+01 1 0 0
4417 385 7 0.0000000000000000e+00 -2.6614718151261457e+02 3.3935526630876822e+01 1.7917438431883220e+01 0 0 0
2328 233 6 0.0000000000000000e+00 -2.8982011114485903e+02 3.0606377426106032e+01 2.5757070014334825e+01 0 0 0
3996 362 8 0.0000000000000000e+00 -2.6872963884249197e+02 6.3997113305358955e+00 3.5416347492979163e+01 0 0 0
4418 385 8 0.0000000000000000e+00 -2.6002350018797227e+02 2.6671949412381259e+01 2.1103259230792172e+01 0 0 0
788 79 2 0.0000000000000000e+00 -2.9908676118422420e+02 9.8654679486412800e+00 4.2094947880772814e+01 1 0 0
2326 233 6 0.0000000000000000e+00 -2.9521696886904374e+02 3.9775504155342226e+01 3.8343911015381543e+01 0 0 0
3511 337 7 0.0000000000000000e+00 -2.8810269861238328e+02 3.9776803363512698e+01 2.0325198152357164e+01 0 0 0
2132 214 6 0.0000000000000000e+00 -2.7420861184646026e+02 4.1713393311196604e+01 4.0373745805946029e+01 0 0 0
3515 337 8 0.0000000000000000e+00 -2.9990299229488750e+02 2.3353353128814966e+01 3.7525867955491101e+01 0 0 0
4421 385 8 0.0000000000000000e+00 -2.4744194204256792e+02 4.0694498741892517e+01 3.8906347935954400e+01 0 0 0
2061 207 4 0.0000000000000000e+00 -2.5907018687956275e+02 3.0323187917225902e+00 3.3282471993501716e+01 1 0 0
2765 277 6 0.0000000000000000e+00 -2.3811605273631392e+02 2.8577694321591633e+00 3.4409113187416260e+01 0 0 0
2763 277 6 0.0000000000000000e+00 -2.4713601828417433e+02 3.2108522790841620e+00 1.9866383659820841e+01 0 0 0
739 74 2 0.0000000000000000e+00 -2.2158041142620561e+02 3.6105472332026551e+01 2.3186977299097265e+01 0 0 0
4419 385 8 0.0000000000000000e+00 -2.5592299428809977e+02 3.4124396013889701e+01 2.6829051110712747e+01 0 0 0
2062 207 6 0.0000000000000000e+00 -2.5330928643531485e+02 9.7965993175195027e+00 2.8746541756837434e+01 1 0 0
4338 380 8 0.0000000000000000e+00 -2.2942647743363062e+02 3.2759549170717982e+01 3.2542930579086430e+01 1 0 0
2248 225 6 0.0000000000000000e+00 -2.2867516053489152e+02 9.5736848954913327e+00 3.2782179544183379e+01 0 0 0
2063 207 6 0.0000000000000000e+00 -2.5217973792037981e+02 1.7475287245422710e+01 3.5126209337421550e+01 1 0 0
5407 437 8 0.0000000000000000e+00 -2.3097980823852910e+02 2.8346436533322901e+01 2.0119058103643415e+01 1 0 0
2764 277 5 0.0000000000000000e+00 -2.4296544909703749e+02 8.0627458664604177e+00 2.7140501403156144e+01 0 0 0
5409 437 8 0.0000000000000000e+00 -2.2412163397289140e+02 1.9044888305328872e+01 1.8057594485532899e+01 1 0 0
1277 128 5 0.0000000000000000e+00 -2.4031548883559665e+02 3.2454489984074449e+01 3.8789919821101456e+01 0 0 0
1275 128 6 0.0000000000000000e+00 -2.4389158834343283e+02 3.3979466043309870e+01 1.9992201358780509e+01 0 0 0
1274 128 5 0.0000000000000000e+00 -2.5125653120122476e+02 4.0638747172946786e+01 1.7625938082962065e+01 0 0 0
1276 128 6 0.0000000000000000e+00 -2.4516622572802754e+02 3.2300899108874390e+01 3.0190902470364559e+01 0 0 0
2249 225 6 0.0000000000000000e+00 -2.3544896563430595e+02 1.4484802006803609e+01 2.6688059207502498e+01 0 0 0
5408 437 7 0.0000000000000000e+00 -2.3417609641037666e+02 1.9043913738518604e+01 1.6431514578111543e+01 1 0 0
2247 225 5 0.0000000000000000e+00 -2.2873493955297906e+02 6.4022692034824669e+00 4.1981087471677277e+01 0 0 0
2250 225 5 0.0000000000000000e+00 -2.3791932277188616e+02 2.3820268391533663e+01 2.5287443645972289e+01 0 0 0
2064 207 5 0.0000000000000000e+00 -2.4361973255363930e+02 2.2849375030394611e+01 3.4335640818915799e+01 1 0 0
4337 380 7 0.0000000000000000e+00 -2.3237059467500515e+02 2.3596944992937278e+01 3.4243575351655736e+01 1 0 0
4339 380 8 0.0000000000000000e+00 -2.2732088126526293e+02 4.1913447575154301e+01 2.8368598496839617e+01 1 0 0
4359 381 9 0.0000000000000000e+00 -2.2401688743878020e+02 1.7541318758167392e+01 2.9045013665367676e+01 0 0 0
5406 437 8 0.0000000000000000e+00 -2.3635789458172673e+02 3.3989805785968770e+01 2.5766189858548572e+01 1 0 0
5405 437 7 0.0000000000000000e+00 -2.4044635964014006e+02 4.0927807547403518e+01 3.1821188796504828e+01 1 0 0
314 32 3 0.0000000000000000e+00 -2.2290004153583706e+02 8.1827182710475714e+00 2.4208602587365387e+01 0 0 0
4336 380 8 0.0000000000000000e+00 -2.3727670086207203e+02 1.8575416020445978e+01 4.1987634928168788e+01 1 0 0
4358 381 8 0.0000000000000000e+00 -2.2113237085167955e+02 1.4387625975659457e+01 3.8316442017817600e+01 0 0 0
4420 385 7 0.0000000000000000e+00 -2.5613748192028908e+02 4.2205620440888772e+01 3.3770596377391392e+01 0 0 0
1278 128 6 0.0000000000000000e+00 -2.3176931131111209e+02 2.9794167442631306e+01 4.1880320020567787e+01 0 0 0
4357 381 8 0.0000000000000000e+00 -2.1885604499255990e+02 5.2490362683667682e+00 4.2091163679081625e+01 0 0 0
2078 208 6 0.0000000000000000e+00 -2.9037992482331555e+02 -2.5893378975007118e+02 6.6035188094814842e+01 0 0 0
2074 208 5 0.0000000000000000e+00 -2.9981258369282028e+02 -2.2762522943795642e+02 5.5807142674907027e+01 0 0 0
2073 208 6 0.0000000000000000e+00 -2.9930885036999109e+02 -2.2357070262867529e+02 4.7330942685295241e+01 0 0 0
2079 208 6 0.0000000000000000e+00 -2.8697147939384530e+02 -2.5159639408788902e+02 7.1865641639661618e+01 0 0 0
2077 208 5 0.0000000000000000e+00 -2.9661384465815433e+02 -2.5429566307417085e+02 6.0002984257211253e+01 0 0 0
2080 208 5 0.0000000000000000e+00 -2.9667219680418873e+02 -2.4830834931750110e+02 7.0420154200852210e+01 0 0 0
2076 208 6 0.0000000000000000e+00 -2.9995270493688054e+02 -2.4535321142158267e+02 6.0804437624763708e+01 0 0 0
3406 331 7 0.0000000000000000e+00 -2.9691592302025146e+02 -8.8338535928098509e+01 5.6863127265548030e+01 0 0 0
941 95 4 0.0000000000000000e+00 -2.9944444837473782e+02 -8.8603248769402754e+01 6.7394006683685433e+01 0 0 0
3404 331 8 0.0000000000000000e+00 -2.9682449776105364e+02 -9.8507479933266794e+01 5.3369783309978459e+01 0 0 0
946 95 6 0.0000000000000000e+00 -2.9457352184483409e+02 -1.0399098677429222e+02 6.9385144927135244e+01 0 0 0
947 95 5 0.0000000000000000e+00 -2.8662019395545815e+02 -1.0684402820973743e+02 7.5092464971939592e+01 0 0 0
948 95 6 0.0000000000000000e+00 -2.7924480850567659e+02 -1.0985371841858151e+02 6.9147673163038860e+01 0 0 0
949 95 6 0.0000000000000000e+00 -2.7054093080406642e+02 -1.0935108518735680e+02 6.3644496142849981e+01 0 0 0
950 95 5 0.0000000000000000e+00 -2.6648880670936177e+02 -1.0151920631601513e+02 5.9899371688695851e+01 0 0 0
3405 331 8 0.0000000000000000e+00 -2.9128074392905899e+02 -9.5210094945447281e+01 6.0711877053474375e+01 0 0 0
799 80 2 0.0000000000000000e+00 -2.2603148421428892e+02 -8.8958325616532264e+01 4.7435227063103255e+01 0 0 0
5329 433 7 0.0000000000000000e+00 -2.6279797816681764e+02 -4.9920901771119439e+01 4.6038249734511211e+01 0 0 0
760 76 3 0.0000000000000000e+00 -2.9299410100224054e+02 -7.9768877752549130e+01 6.4295192194635874e+01 0 0 0
757 76 3 0.0000000000000000e+00 -2.9581173988363742e+02 -6.7933282156005731e+01 4.3791579498697992e+01 0 0 0
759 76 2 0.0000000000000000e+00 -2.8708530064170168e+02 -8.1239550549371415e+01 5.5707304376863348e+01 0 0 0
3980 362 7 0.0000000000000000e+00 -2.6693499056522205e+02 -5.8781420839906836e+01 4.8284945142336156e+01 0 0 0
758 76 2 0.0000000000000000e+00 -2.9085666076158799e+02 -7.4761256382098551e+01 4.8563193080201508e+01 0 0 0
3981 362 8 0.0000000000000000e+00 -2.7312720769382429e+02 -5.1732158645915682e+01 5.0153433745840388e+01 0 0 0
2560 256 5 0.0000000000000000e+00 -2.8391253311344445e+02 -4.9814569936842105e+01 6.8279417776907991e+01 0 0 0
800 80 3 0.0000000000000000e+00 -2.2759506816400261e+02 -8.4219174182656033e+01 5.5511937435520871e+01 0 0 0
2082 209 6 0.0000000000000000e+00 -2.1880282845838619e+02 -4.2945925886697900e+01 5.1847857707270791e+01 0 0 0
1715 172 6 0.0000000000000000e+00 -2.2045485578630493e+02 -6.0023119480955181e+01 5.5219623344658842e+01 0 0 0
2597 260 5 0.0000000000000000e+00 -2.5744458877277702e+02 -6.5098965085427565e+01 4.9101689355925195e+01 1 0 0
1711 172 4 0.0000000000000000e+00 -2.2037977498392854e+02 -7.9332688365846693e+01 4.9074511883694115e+01 0 0 0
2596 260 6 0.0000000000000000e+00 -2.5877670530758206e+02 -5.9089704491536928e+01 5.6806232294965746e+01 1 0 0
2595 260 6 0.0000000000000000e+00 -2.5527098519277266e+02 -5.0279305158348322e+01 5.3399217375818957e+01 1 0 0
2594 260 5 0.0000000000000000e+00 -2.5173346764237940e+02 -4.8915417848380606e+01 4.3785401273219925e+01 1 0 0
1716 172 6 0.0000000000000000e+00 -2.2877085709582261e+02 -5.6852564810350188e+01 5.1063336021089000e+01 0 0 0
1717 172 5 0.0000000000000000e+00 -2.2114255827077983e+02 -5.2391629894155912e+01 4.7134733932640621e+01 0 0 0
5336 433 8 0.0000000000000000e+00 -2.4108929577161683e+02 -5.2890894533299488e+01 5.0790921153093677e+01 0 0 0
5337 433 8 0.0000000000000000e+00 -2.3961887146630337e+02 -5.2332122480935183e+01 6.0670589642989100e+01 0 0 0
5338 433 7 0.0000000000000000e+00 -2.3480709904137231e+02 -4.7278383150580588e+01 6.7900739083178436e+01 0 0 0
5335 433 7 0.0000000000000000e+00 -2.4152308031634402e+02 -4.6351365611016938e+01 4.4296225896847155e+01 0 0 0
1712 172 6 0.0000000000000000e+00 -2.1873495882728514e+02 -7.5837881562392226e+01 5.7968940617295623e+01 0 0 0
599 60 2 0.0000000000000000e+00 -2.8290518649353839e+02 -1.5368209448234245e+01 4.4750531635800641e+01 1 0 0
3982 362 8 0.0000000000000000e+00 -2.6930722936493777e+02 -4.2527713538934620e+01 5.2510367127429376e+01 0 0 0
3991 362 8 0.0000000000000000e+00 -2.9908183879401810e+02 -1.3046542824867942e+01 5.0578695556501813e+01 0 0 0
2559 256 6 0.0000000000000000e+00 -2.8030185176724251e+02 -4.1192383602831590e+01 6.4171649880016886e+01 0 0 0
2556 256 6 0.0000000000000000e+00 -2.7963201013965295e+02 -2.4678978830101268e+01 4.4524174946559640e+01 0 0 0
2558 256 6 0.0000000000000000e+00 -2.7826610354613445e+02 -3.1197504708085795e+01 6.2570880866419245e+01 0 0 0
3985 362 8 0.0000000000000000e+00 -2.6594719199042606e+02 -2.2062033886125466e+01 6.4874468532627418e+01 0 0 0
3987 362 8 0.0000000000000000e+00 -2.8241845341441115e+02 -2.1035134043459109e+01 5.7391882069356875e+01 0 0 0
3988 362 8 0.0000000000000000e+00 -2.9001125854930683e+02 -2.6659804504499725e+01 5.5209448056468709e+01 0 0 0
2557 256 5 0.0000000000000000e+00 -2.7775749762653862e+02 -3.0274537569757918e+01 5.2506115429358161e+01 0 0 0
3027 303 5 0.0000000000000000e+00 -2.7053561612249769e+02 -8.8568331971338417e+00 6.5910238721306172e+01 0 0 0
3986 362 7 0.0000000000000000e+00 -2.7267837469125880e+02 -1.7660844836912645e+01 5.8168040662256224e+01 0 0 0
3024 303 5 0.0000000000000000e+00 -2.7703299392052577e+02 -3.7065478929503710e+00 4.5129806953822289e+01 0 0 0
3983 362 7 0.0000000000000000e+00 -2.6811334844528136e+02 -3.4201910534391956e+01 5.8098166336019759e+01 0 0 0
3028 303 6 0.0000000000000000e+00 -2.6740490299218436e+02 -8.9936382490498126e+00 5.7334231819341845e+01 0 0 0
3984 362 8 0.0000000000000000e+00 -2.6052717577672831e+02 -2.9803122986560982e+01 6.2605250323626109e+01 0 0 0
3992 362 7 0.0000000000000000e+00 -2.9801455214887051e+02 -2.8520845819477878e+00 5.0232460429263156e+01 0 0 0
3819 353 8 0.0000000000000000e+00 -2.5984396319924940e+02 -7.2732318496098030e+00 8.3827974808586632e+01 0 0 0
3029 303 6 0.0000000000000000e+00 -2.6041542047406227e+02 -1.4239281808193509e+00 5.9036258421259788e+01 0 0 0
769 77 2 0.0000000000000000e+00 -2.6126475943930711e+02 -1.6823629226972184e+01 4.9657643413508431e+01 0 0 0
3025 303 6 0.0000000000000000e+00 -2.7404241787519067e+02 -1.9902331782550386e+00 5.4667903457966737e+01 0 0 0
4331 380 7 0.0000000000000000e+00 -2.6114661015543521e+02 -3.5078260037650866e+00 4.5475321458358287e+01 1 0 0
3026 303 6 0.0000000000000000e+00 -2.7904266379838737e+02 -4.1732433141898104e+00 6.3617101142420694e+01 0 0 0
3989 362 7 0.0000000000000000e+00 -2.9864140492021841e+02 -3.1432305501604525e+01 5.3172638355451681e+01 0 0 0
4329 380 8 0.0000000000000000e+00 -2.4602939321548999e+02 -1.0439897815110077e+01 4.4296418565376008e+01 1 0 0
4330 380 8 0.0000000000000000e+00 -2.5132124657803993e+02 -1.7896547753734602e+00 4.5685101552521274e+01 1 0 0
4649 397 8 0.0000000000000000e+00 -2.1905952219713959e+02 -1.1422043167473763e+01 8.2868283163440026e+01 0 0 0
196 20 2 0.0000000000000000e+00 -2.5897744164083753e+02 -2.6945850931728831e+01 4.5914847488262886e+01 0 0 0
4380 383 8 0.0000000000000000e+00 -2.3188429134594304e+02 -5.7353593477154705e+00 4.6729794045729861e+01 0 0 0
5334 433 8 0.0000000000000000e+00 -2.4253166459463012e+02 -3.6299063116100029e+01 4.3146315764581949e+01 0 0 0
768 77 2 0.0000000000000000e+00 -2.5513273896128064e+02 -1.3416734873167016e+01 4.3056593054138581e+01 0 0 0
4326 380 8 0.0000000000000000e+00 -2.3099754474110372e+02 -2.4615128101849422e+01 4.6952879681454021e+01 1 0 0
5339 433 8 0.0000000000000000e+00 -2.2954878737960098e+02 -3.9511776902732713e+01 6.9986060608597498e+01 0 0 0
4381 383 8 0.0000000000000000e+00 -2.2615312753087534e+02 -1.6907631326409251e+00 5.3930639070078982e+01 0 0 0
4322 380 7 0.0000000000000000e+00 -2.4062721721137774e+02 -6.9425346987396788e+00 5.7503319512058127e+01 1 0 0
197 20 3 0.0000000000000000e+00 -2.5419334202648321e+02 -3.1944286766051416e+01 5.2707340635558921e+01 0 0 0
3818 353 7 0.0000000000000000e+00 -2.5425009695757427e+02 -9.5405213681297312e+00 7.5423133571276352e+01 0 0 0
3817 353 8 0.0000000000000000e+00 -2.4534793370471110e+02 -8.4472636528968135e+00 7.1693847904121469e+01 0 0 0
200 20 3 0.0000000000000000e+00 -2.2900388011700954e+02 -3.6413174378909936e+01 5.5330829007899290e+01 0 0 0
198 20 2 0.0000000000000000e+00 -2.4785498329048923e+02 -3.8273914446432798e+01 5.6101242246772976e+01 0 0 0
199 20 2 0.0000000000000000e+00 -2.3846842416937821e+02 -3.8126039717419353e+01 5.9397416996063363e+01 0 0 0
5340 433 8 0.0000000000000000e+00 -2.2262167387050781e+02 -3.3523657875114175e+01 7.3623445488942451e+01 0 0 0
770 77 3 0.0000000000000000e+00 -2.5635979852504306e+02 -2.2011085325252189e+01 5.6610832954018207e+01 0 0 0