LAMMPS data file via write_data, version 5 Jun 2019, timestep = 320000000

5660 atoms
11 atom types
5943 bonds
7 bond types
4660 angles
4 angle types

-3.0000000000000000e+02 3.0000000000000000e+02 xlo xhi
-3.0000000000000000e+02 3.0000000000000000e+02 ylo yhi
0.0000000000000000e+00 3.0000000000000000e+02 zlo zhi

Masses

1 1000
2 450
3 450
4 11000
5 7000
6 450
7 450
8 450
9 450
10 450
11 20000

Pair Coeffs # lj/cut

1 0.24 10
2 0.24 10
3 0.24 10
4 0.24 10
5 0.24 10
6 0.24 10
7 0.24 10
8 0.24 10
9 0.24 10
10 0.24 10
11 0.24 30

Angle Coeffs # cosine

1 1
2 1
3 1
4 1

Atoms # full

5136 422 8 0.0000000000000000e+00 -2.2467660046095423e+02 -1.2873358991749598e+02 3.3611247303633590e+01 0 0 0
5135 422 7 0.0000000000000000e+00 -2.2495503662691382e+02 -1.2087809435417009e+02 3.9606544992290239e+01 0 0 0
827 83 5 0.0000000000000000e+00 -2.3581070864214055e+02 -1.0705363382380861e+02 4.1403482224913731e+01 0 0 0
826 83 6 0.0000000000000000e+00 -2.3691985739076145e+02 -1.1172929402258322e+02 3.2601077772795392e+01 0 0 0
3044 305 5 0.0000000000000000e+00 -2.1016947641204746e+02 -1.0144998987089632e+02 2.2708561408217840e+01 0 0 0
824 83 5 0.0000000000000000e+00 -2.2455591110386317e+02 -1.0605265785769464e+02 2.7090295819731562e+01 0 0 0
825 83 6 0.0000000000000000e+00 -2.3440239570263472e+02 -1.0485694564027004e+02 2.5990609882341275e+01 0 0 0
5133 422 8 0.0000000000000000e+00 -2.2616895899122275e+02 -1.0361925954695151e+02 3.9568061986827551e+01 0 0 0
5137 422 8 0.0000000000000000e+00 -2.2921927697800402e+02 -1.3433210922679831e+02 4.0308140349746083e+01 0 0 0
3045 305 6 0.0000000000000000e+00 -2.1031869791967230e+02 -1.0704463872157309e+02 1.5041717267939534e+01 0 0 0
823 83 6 0.0000000000000000e+00 -2.1797679785744307e+02 -9.9601027924648179e+01 3.0730160098095592e+01 0 0 0
5627 489 10 0.0000000000000000e+00 -2.4629602272967034e+02 -1.2921051515000875e+02 4.0771885440725114e+01 0 0 0
3043 305 6 0.0000000000000000e+00 -2.0899953628642473e+02 -1.0144052855427924e+02 3.2435989335619929e+01 0 0 0
3046 305 6 0.0000000000000000e+00 -2.0843656837189724e+02 -1.0932850365328170e+02 6.1112455923476725e+00 0 0 0
751 76 1 0.0000000000000000e+00 -2.0965148787752398e+02 -9.9459315840546040e+01 6.8810700000000002e+00 0 0 0
752 76 2 0.0000000000000000e+00 -2.1836487119721355e+02 -9.9781589414382537e+01 1.2408616321458666e+01 0 0 0
5138 422 9 0.0000000000000000e+00 -2.3544597262894573e+02 -1.2686978812615632e+02 4.1017037870287609e+01 0 0 0
3404 331 8 0.0000000000000000e+00 -2.1236465228151974e+02 -1.1629571241729415e+02 4.0531928173483387e+01 0 0 0
1967 197 5 0.0000000000000000e+00 -2.7950617676389658e+02 -8.0556612364344161e+01 3.0713599019201318e+01 0 0 0
1968 197 6 0.0000000000000000e+00 -2.7625438626426183e+02 -7.8944846117021243e+01 3.9808948370116262e+01 0 0 0
1966 197 6 0.0000000000000000e+00 -2.8056076737958296e+02 -7.8587263139059090e+01 2.1146360873696000e+01 0 0 0
2244 225 5 0.0000000000000000e+00 -2.6757123404531461e+02 -6.4455610634351657e+01 3.5622015673977351e+01 0 0 0
1964 197 5 0.0000000000000000e+00 -2.9647326423527085e+02 -7.6826692956323100e+01 8.4864539286135265e+00 0 0 0
1965 197 6 0.0000000000000000e+00 -2.8703515174509909e+02 -7.8774714902105970e+01 1.3626843277829369e+01 0 0 0
4328 380 7 0.0000000000000000e+00 -2.6276737769585253e+02 -7.4183163624965246e+01 3.9049391032098839e+01 1 0 0
4327 380 8 0.0000000000000000e+00 -2.5644293046323918e+02 -6.7285031487937502e+01 3.5572272461151933e+01 1 0 0
4461 387 7 0.0000000000000000e+00 -2.9923646795833395e+02 -6.2982904380768701e+01 3.6525926763505900e+01 1 0 0
754 76 3 0.0000000000000000e+00 -2.2566819745068503e+02 -8.6996059687386676e+01 2.2286707096622276e+01 0 0 0
755 76 2 0.0000000000000000e+00 -2.3181223365525688e+02 -7.9445279303156425e+01 2.5827659726730179e+01 0 0 0
941 95 4 0.0000000000000000e+00 -2.3276663092820806e+02 -8.9954245960035891e+01 3.1123630970829165e+01 0 0 0
756 76 2 0.0000000000000000e+00 -2.2968109241866239e+02 -7.3611094315191878e+01 3.3109259552020511e+01 0 0 0
753 76 2 0.0000000000000000e+00 -2.2230613361440763e+02 -9.6739208725152224e+01 2.1015188048696526e+01 0 0 0
2081 209 4 0.0000000000000000e+00 -2.1164258623669087e+02 -6.3900156545917106e+01 3.6127983261262663e+01 0 0 0
822 83 6 0.0000000000000000e+00 -2.1599603963563698e+02 -9.1003499077363742e+01 2.6503992050117780e+01 0 0 0
821 83 4 0.0000000000000000e+00 -2.1564860925595246e+02 -8.0822786617993529e+01 2.7739144995754035e+01 0 0 0
4324 380 8 0.0000000000000000e+00 -2.4136362261809779e+02 -6.7310768390306961e+01 3.9115180882144038e+01 1 0 0
2423 243 6 0.0000000000000000e+00 -2.2249478360249211e+02 -6.2021998687506589e+01 1.6619673531306400e+01 0 0 0
942 95 6 0.0000000000000000e+00 -2.2551744409317718e+02 -9.0624031556849147e+01 3.8186688536921793e+01 0 0 0
757 76 3 0.0000000000000000e+00 -2.2234967320347454e+02 -6.6253227075562833e+01 3.5695306063594373e+01 0 0 0
3041 305 4 0.0000000000000000e+00 -2.1055489129454295e+02 -9.0287775144081237e+01 3.9076847870169786e+01 0 0 0
4325 380 7 0.0000000000000000e+00 -2.4072330179604194e+02 -7.7405711699519657e+01 3.9083457281656649e+01 1 0 0
2422 243 6 0.0000000000000000e+00 -2.2762835519363384e+02 -6.2804965406677326e+01 2.4414185858891603e+01 0 0 0
291 30 1 0.0000000000000000e+00 -2.0889229826006815e+02 -6.5173435510546867e+01 5.0072700000000001e+00 0 0 0
2421 243 4 0.0000000000000000e+00 -2.3776174368573047e+02 -6.2441611691274254e+01 2.5225885500624962e+01 0 0 0
571 58 1 0.0000000000000000e+00 -2.3330018039371467e+02 -5.9824581787889429e+01 5.0072700000000001e+00 0 0 0
5132 422 7 0.0000000000000000e+00 -2.3296689638247062e+02 -9.6571747651975897e+01 4.0834475669416889e+01 0 0 0
4326 380 8 0.0000000000000000e+00 -2.5077765948393181e+02 -7.5610853251635248e+01 3.8508883870533786e+01 1 0 0
4778 404 7 0.0000000000000000e+00 -2.1383393215370279e+02 -7.4753957003093987e+01 4.1233597813272155e+01 0 0 0
2245 225 6 0.0000000000000000e+00 -2.7315384397720072e+02 -5.5978556355021468e+01 3.6073676706521624e+01 0 0 0
2246 225 6 0.0000000000000000e+00 -2.8226761335435720e+02 -5.9258204869284683e+01 3.4011717541590492e+01 0 0 0
2248 225 6 0.0000000000000000e+00 -2.9750627950004093e+02 -5.2154580680165623e+01 2.5740633634372305e+01 0 0 0
2243 225 6 0.0000000000000000e+00 -2.6201371321278435e+02 -5.7574784428503349e+01 3.1242203785855665e+01 0 0 0
2247 225 5 0.0000000000000000e+00 -2.8791986727842965e+02 -5.3384694156413637e+01 2.8012213538748234e+01 0 0 0
787 79 3 0.0000000000000000e+00 -2.9206907962183180e+02 -3.4795788350309863e+01 3.5536820621149104e+01 1 0 0
801 81 4 0.0000000000000000e+00 -2.8120059045145689e+02 -4.7185123057955508e+01 3.7610232807627746e+01 0 0 0
1693 170 6 0.0000000000000000e+00 -2.7700500145953839e+02 -3.0622774679945309e+01 3.5282266350620084e+01 0 0 0
1694 170 5 0.0000000000000000e+00 -2.7130671946571084e+02 -2.3193062859774010e+01 3.7781994082389012e+01 0 0 0
1691 170 4 0.0000000000000000e+00 -2.8726807948489318e+02 -2.1571559039364313e+01 2.3632400030480440e+01 0 0 0
789 79 2 0.0000000000000000e+00 -2.8120862282628497e+02 -4.7081549217945842e+01 2.3888353015173152e+01 1 0 0
790 79 3 0.0000000000000000e+00 -2.7346338930188358e+02 -4.7911120488328066e+01 2.9991861652745246e+01 1 0 0
788 79 2 0.0000000000000000e+00 -2.8652226603631937e+02 -4.1637162672150865e+01 3.0511884465512619e+01 1 0 0
191 20 1 0.0000000000000000e+00 -2.6027234730062099e+02 -3.1240646826015688e+01 5.0072700000000001e+00 0 0 0
2242 225 6 0.0000000000000000e+00 -2.5870886286631134e+02 -5.2412970676967525e+01 2.3709790516679384e+01 0 0 0
1692 170 6 0.0000000000000000e+00 -2.8434867200319621e+02 -2.9211350394532847e+01 2.9217256287364705e+01 0 0 0
192 20 2 0.0000000000000000e+00 -2.6386685987561754e+02 -2.2905960658585332e+01 9.6464371324042837e+00 0 0 0
786 79 2 0.0000000000000000e+00 -2.9413926525515080e+02 -2.5241349122523651e+01 3.6549144627696528e+01 1 0 0
4462 387 8 0.0000000000000000e+00 -2.9522636563186046e+02 -5.3584956352730927e+01 3.8501783103022731e+01 1 0 0
1695 170 6 0.0000000000000000e+00 -2.6221437018487319e+02 -2.3304456724089633e+01 4.1558087401442663e+01 0 0 0
4467 387 7 0.0000000000000000e+00 -2.8211459973497728e+02 -2.1057111413880570e+01 3.6757164474885442e+01 1 0 0
4463 387 8 0.0000000000000000e+00 -2.9353824205056367e+02 -4.4754088861510304e+01 4.1637981540697638e+01 1 0 0
4057 366 8 0.0000000000000000e+00 -2.5661226361475940e+02 -4.2786759144226927e+01 3.8839071724555389e+01 0 0 0
2763 277 6 0.0000000000000000e+00 -2.5492316424017588e+02 -3.5526237962672816e+01 1.2112666250726807e+01 0 0 0
785 79 2 0.0000000000000000e+00 -2.9872372716779756e+02 -2.0354266533468500e+01 2.9828876249660855e+01 1 0 0
784 79 3 0.0000000000000000e+00 -2.9757905207540597e+02 -2.0383988224797566e+01 1.9907820407629895e+01 1 0 0
758 76 2 0.0000000000000000e+00 -2.2441284612748288e+02 -5.6931908389825203e+01 3.9667138511132322e+01 0 0 0
580 58 3 0.0000000000000000e+00 -2.4884616828259269e+02 -5.5512650684306301e+01 1.3485917906772902e+00 0 0 0
2764 277 5 0.0000000000000000e+00 -2.5364084231384362e+02 -2.6033954427291171e+01 8.0203270190914289e+00 0 0 0
579 58 2 0.0000000000000000e+00 -2.5162185795345405e+02 -5.4644422479279015e+01 1.0966965143705938e+01 0 0 0
5021 416 7 0.0000000000000000e+00 -2.1665644454363746e+02 -5.3868485528250687e+01 1.2978320051976661e+01 0 0 0
2241 225 4 0.0000000000000000e+00 -2.4855233291930827e+02 -5.2258940099650481e+01 2.4726238425094973e+01 0 0 0
2762 277 6 0.0000000000000000e+00 -2.5171539062222735e+02 -3.9164979188488040e+01 2.1099766691003939e+01 0 0 0
2424 243 5 0.0000000000000000e+00 -2.2256069235944395e+02 -5.3296025303463800e+01 2.1854859187329119e+01 0 0 0
759 76 2 0.0000000000000000e+00 -2.3382165204467057e+02 -5.3056302847216386e+01 3.9545095680792642e+01 0 0 0
578 58 2 0.0000000000000000e+00 -2.4231917131406723e+02 -5.8623658231874579e+01 9.4717159568497280e+00 0 0 0
5019 416 8 0.0000000000000000e+00 -2.2207365001610498e+02 -4.4913589497621999e+01 5.4112552094891431e+00 0 0 0
577 58 3 0.0000000000000000e+00 -2.3698276951685366e+02 -5.4112271416212472e+01 1.6533818151681466e+01 0 0 0
575 58 2 0.0000000000000000e+00 -2.3625390564324235e+02 -3.5050483503682059e+01 1.6297044378641644e+01 0 0 0
760 76 3 0.0000000000000000e+00 -2.4005008083950406e+02 -5.2446218662198717e+01 3.2556994378418040e+01 0 0 0
572 58 2 0.0000000000000000e+00 -2.3666330114767638e+02 -5.0397060625528539e+01 4.8790673837848306e+00 0 0 0
2425 243 6 0.0000000000000000e+00 -2.2204786806855651e+02 -4.6265473823823136e+01 2.9087001392349364e+01 0 0 0
576 58 2 0.0000000000000000e+00 -2.3321269128396312e+02 -4.4968263108022057e+01 1.4513033192185144e+01 0 0 0
2761 277 4 0.0000000000000000e+00 -2.4230425052090885e+02 -4.1330632081644325e+01 2.2253704055961840e+01 0 0 0
574 58 3 0.0000000000000000e+00 -2.4372387975519598e+02 -3.8533610515741522e+01 1.1110581045280080e+01 0 0 0
5017 416 8 0.0000000000000000e+00 -2.2410041241734814e+02 -3.2696184065192334e+01 1.7688979377827991e+01 0 0 0
5016 416 8 0.0000000000000000e+00 -2.2211204427484412e+02 -2.7962534961145696e+01 2.5901194686976549e+01 0 0 0
573 58 2 0.0000000000000000e+00 -2.4127413378523596e+02 -4.1865901379251866e+01 1.8634248796857382e+00 0 0 0
5015 416 7 0.0000000000000000e+00 -2.2110324518980875e+02 -2.9531633227855210e+01 3.6370662888726230e+01 0 0 0
2426 243 6 0.0000000000000000e+00 -2.2840708176020522e+02 -4.5426851606646061e+01 3.6579420297841466e+01 0 0 0
3024 303 5 0.0000000000000000e+00 -2.1428764681954806e+02 -3.4298131372823228e+01 2.8411414621854249e+01 0 0 0
2427 243 5 0.0000000000000000e+00 -2.3474701458386070e+02 -3.8610010598507976e+01 3.8159421472726663e+01 0 0 0
5020 416 8 0.0000000000000000e+00 -2.1399404903368043e+02 -5.0630596465458623e+01 3.8568973035663161e+00 0 0 0
5018 416 7 0.0000000000000000e+00 -2.2714662608065521e+02 -3.8546853421232157e+01 1.0333490191687755e+01 0 0 0
1438 144 6 0.0000000000000000e+00 -2.1595918039169081e+02 -2.0545649758726206e+01 1.5837995463520880e+01 0 0 0
5014 416 8 0.0000000000000000e+00 -2.1768627542363478e+02 -3.7925002847116154e+01 4.1245532290408136e+01 0 0 0
4058 366 8 0.0000000000000000e+00 -2.4657534037825118e+02 -4.6189572688140181e+01 3.9116885956921877e+01 0 0 0
4059 366 7 0.0000000000000000e+00 -2.4618642340030175e+02 -3.6169656668444709e+01 3.8147539314680053e+01 0 0 0
3827 353 9 0.0000000000000000e+00 -2.1358506067360048e+02 -2.1463077943456465e+01 2.7989282959487639e+01 0 0 0
3023 303 6 0.0000000000000000e+00 -2.1017050279526472e+02 -3.1302722866456417e+01 3.7007703571753822e+01 0 0 0
4348 381 8 0.0000000000000000e+00 -2.3616669470066279e+02 -2.3693994947854250e+01 1.9330496321027585e+01 0 0 0
1437 144 5 0.0000000000000000e+00 -2.0980835875669453e+02 -2.6663155929347866e+01 1.1813598413952617e+01 0 0 0
4346 381 8 0.0000000000000000e+00 -2.2586622506092596e+02 -1.9454705503060051e+01 4.3153659616051412e+00 0 0 0
2765 277 6 0.0000000000000000e+00 -2.4876374461409873e+02 -2.0487753194618971e+01 1.0706254604505734e+00 0 0 0
1014 102 5 0.0000000000000000e+00 -2.3238477663697304e+02 -2.0778414186493414e+01 3.9052579723537768e+01 1 0 0
4323 380 8 0.0000000000000000e+00 -2.4741380133249172e+02 -5.8914660507466799e+01 3.9391453012456687e+01 1 0 0
5022 416 8 0.0000000000000000e+00 -2.1030629315792513e+02 -5.8310603648378432e+01 1.9199056108611774e+01 0 0 0
3025 303 6 0.0000000000000000e+00 -2.0850668393617391e+02 -4.2388018616758288e+01 2.9420462028871718e+01 0 0 0
783 79 2 0.0000000000000000e+00 -2.8947740777131747e+02 -1.7900758103482286e+01 1.4412166238390972e+01 1 0 0
2771 278 4 0.0000000000000000e+00 -2.7046905909995183e+02 -8.2495845368650542e+00 3.0819123445681964e+01 0 0 0
2772 278 6 0.0000000000000000e+00 -2.7117969856113325e+02 -1.3197886485103490e+01 3.9442041567077062e+01 0 0 0
781 79 1 0.0000000000000000e+00 -2.7523738121419763e+02 -7.6713751438345961e+00 8.4781800000000000e+00 1 0 0
193 20 2 0.0000000000000000e+00 -2.6822838625627196e+02 -1.8047907283898535e+01 1.7814250741851584e+01 0 0 0
194 20 3 0.0000000000000000e+00 -2.6466715606634915e+02 -9.4197977619254836e+00 2.0990321951595430e+01 0 0 0
195 20 2 0.0000000000000000e+00 -2.6924966244075085e+02 -3.6895696364479935e-01 2.2181125429531388e+01 0 0 0
782 79 2 0.0000000000000000e+00 -2.7992066431906932e+02 -1.4167273913922452e+01 1.3726818293713318e+01 1 0 0
196 20 2 0.0000000000000000e+00 -2.6244735978284774e+02 2.1029896454032162e+00 2.9092692915687465e+01 0 0 0
2555 256 6 0.0000000000000000e+00 -2.8866414710228236e+02 1.1265342709679526e+01 3.9534815564994354e+01 0 0 0
4265 377 7 0.0000000000000000e+00 -2.5880933977337611e+02 1.9444402377736928e+01 2.0047430747223650e+01 0 0 0
197 20 3 0.0000000000000000e+00 -2.5397052298269264e+02 2.9719645246110451e+00 3.6260586885244251e+01 0 0 0
2553 256 6 0.0000000000000000e+00 -2.7042218163890124e+02 1.5193251766128476e+01 4.1299565126616486e+01 0 0 0
4266 377 8 0.0000000000000000e+00 -2.5190038640665043e+02 1.9743193361378136e+01 2.7346029982206151e+01 0 0 0
2766 277 6 0.0000000000000000e+00 -2.4195925860260957e+02 -1.7733594387611685e+01 7.1063589905656981e+00 0 0 0
4345 381 8 0.0000000000000000e+00 -2.1668400229046333e+02 -1.7673321108849002e+01 2.2137366692758214e+00 0 0 0
3818 353 7 0.0000000000000000e+00 -2.1306217553355563e+02 -1.8935571789289707e+01 4.0841159453649929e+01 0 0 0
4341 381 7 0.0000000000000000e+00 -2.1318079605944371e+02 -7.6148157384245101e+00 2.9437911562844782e+01 0 0 0
4356 381 7 0.0000000000000000e+00 -2.0852823538184532e+02 1.7054044992592853e+01 1.1483139145041500e+01 0 0 0
4342 381 8 0.0000000000000000e+00 -2.0974305146817073e+02 -3.2442921637453845e+00 2.1073256276450252e+01 0 0 0
200 20 3 0.0000000000000000e+00 -2.4521573956855329e+02 -1.4404821354907318e+01 3.3129331219821985e+01 0 0 0
4343 381 8 0.0000000000000000e+00 -2.1053732410036099e+02 -8.1753512264891626e+00 1.2293908361670157e+01 0 0 0
4347 381 7 0.0000000000000000e+00 -2.3078260088961045e+02 -1.8936819694972517e+01 1.2543713539391678e+01 0 0 0
4267 377 8 0.0000000000000000e+00 -2.4867152521774284e+02 1.5836264300913250e+01 3.5873052633535472e+01 0 0 0
199 20 2 0.0000000000000000e+00 -2.4472974609124208e+02 -4.5899554503063209e+00 3.2487886669274033e+01 0 0 0
1439 144 6 0.0000000000000000e+00 -2.2445482517264773e+02 -1.5437147433039565e+01 1.9072953389955970e+01 0 0 0
198 20 2 0.0000000000000000e+00 -2.5044398025537927e+02 1.5567225606647577e+00 2.7042488293495776e+01 0 0 0
2770 277 5 0.0000000000000000e+00 -2.4453308280284509e+02 7.1276768307637726e+00 2.6741488321057796e+00 0 0 0
2769 277 6 0.0000000000000000e+00 -2.4562823708296932e+02 -2.9893280954740091e+00 6.3167399808348179e+00 0 0 0
2768 277 6 0.0000000000000000e+00 -2.4950418634675407e+02 -1.0987790637620529e+01 1.1742098055977799e+01 0 0 0
2767 277 5 0.0000000000000000e+00 -2.3915611380970185e+02 -1.0407653245221919e+01 1.2801042351076852e+01 0 0 0
4350 381 7 0.0000000000000000e+00 -2.3647934780166270e+02 -8.7143201971485205e+00 2.8008519721056143e+01 0 0 0
4349 381 8 0.0000000000000000e+00 -2.3527133837350323e+02 -1.8407179890360752e+01 2.7484210391379325e+01 0 0 0
1440 144 5 0.0000000000000000e+00 -2.2581648311573616e+02 -9.7299293422433557e+00 2.7248339779804994e+01 0 0 0
877 88 5 0.0000000000000000e+00 -2.1544492309159432e+02 -1.6400655546130414e+00 3.7524535753040496e+01 0 0 0
1015 102 6 0.0000000000000000e+00 -2.2755376118615760e+02 -1.2563180497205476e+01 3.5710675498971490e+01 1 0 0
4351 381 8 0.0000000000000000e+00 -2.3390044217046042e+02 1.5711195069277090e-01 2.4840279050090398e+01 0 0 0
2326 233 6 0.0000000000000000e+00 -2.2586108062279953e+02 1.3492220360766314e+01 2.0840822026650631e+01 0 0 0
2327 233 5 0.0000000000000000e+00 -2.1713936339731492e+02 1.4694348785303930e+01 2.3809044017632420e+01 0 0 0
4352 381 8 0.0000000000000000e+00 -2.2498643793961196e+02 3.5005668446116944e+00 2.1665805453650528e+01 0 0 0
4353 381 7 0.0000000000000000e+00 -2.1599284481714486e+02 5.6468056648667737e+00 1.8401677990263593e+01 0 0 0
1020 102 5 0.0000000000000000e+00 -2.3119146481943937e+02 1.5825628703285467e+01 3.0919166601962846e+01 1 0 0
1019 102 6 0.0000000000000000e+00 -2.3407968248326603e+02 8.9346811909569013e+00 3.7883495807721737e+01 1 0 0
1011 102 4 0.0000000000000000e+00 -2.5018544103409457e+02 -8.1710746887011005e+00 4.1396806974868618e+01 1 0 0
4357 381 8 0.0000000000000000e+00 -2.1484514346766247e+02 2.0259177134109240e+01 4.7135987098954457e+00 0 0 0
2325 233 6 0.0000000000000000e+00 -2.2202743027980100e+02 1.8354522998277968e+01 1.2687895500528144e+01 0 0 0
4268 377 7 0.0000000000000000e+00 -2.4065254610171382e+02 1.9346009164463698e+01 4.0380232410058163e+01 0 0 0
4344 381 7 0.0000000000000000e+00 -2.0790067155346568e+02 -1.6548534469356404e+01 7.2780340786191564e+00 0 0 0
1018 102 6 0.0000000000000000e+00 -2.4065934846320124e+02 2.6426044313184818e+00 3.9685753470355415e+01 1 0 0
879 88 6 0.0000000000000000e+00 -2.2341608797282140e+02 7.8590550592549766e+00 4.2473773371349836e+01 0 0 0
4358 381 8 0.0000000000000000e+00 -2.2487251208766270e+02 2.0443614587760514e+01 3.2099311962626511e+00 0 0 0
1525 153 6 0.0000000000000000e+00 -2.1037608563511259e+02 1.8086034715546671e+01 3.9701067742046355e+01 0 0 0
4354 381 8 0.0000000000000000e+00 -2.0868266371719378e+02 8.7458566780128528e+00 2.3079333915725076e+01 0 0 0
5625 489 10 0.0000000000000000e+00 -2.5397849744205769e+02 -1.3185382690122762e+02 5.3172882507345392e+01 0 0 0
5134 422 8 0.0000000000000000e+00 -2.2386313773396310e+02 -1.1237549048522386e+02 4.3350953428626838e+01 0 0 0
3405 331 8 0.0000000000000000e+00 -2.1242519827655374e+02 -1.2474667372200746e+02 4.6354113938662827e+01 0 0 0
2539 254 6 0.0000000000000000e+00 -2.1065687909358738e+02 -1.3188702682268897e+02 5.3442612492266306e+01 0 0 0
3409 331 9 0.0000000000000000e+00 -2.4607812872391420e+02 -1.3293007604559662e+02 6.0524488690230235e+01 0 0 0
828 83 6 0.0000000000000000e+00 -2.3418214215327970e+02 -1.0354297495644437e+02 5.0561446482948192e+01 0 0 0
5626 489 11 0.0000000000000000e+00 -2.4625773482310396e+02 -1.3615883567382053e+02 4.8020693638590060e+01 0 0 0
3408 331 8 0.0000000000000000e+00 -2.3825467575033207e+02 -1.3547476957978961e+02 5.3924010007218506e+01 0 0 0
2540 254 5 0.0000000000000000e+00 -2.1950220786608000e+02 -1.3264380206082362e+02 5.8564437499265686e+01 0 0 0
3407 331 8 0.0000000000000000e+00 -2.2884502945678173e+02 -1.3078556911271170e+02 5.4643611196393728e+01 0 0 0
3406 331 7 0.0000000000000000e+00 -2.2222598066266238e+02 -1.2776491074383203e+02 4.8187139577209877e+01 0 0 0
4335 380 8 0.0000000000000000e+00 -2.9838373601823508e+02 -6.7777320474217206e+01 5.9772912239143764e+01 1 0 0
4333 380 8 0.0000000000000000e+00 -2.8480933455594601e+02 -6.6473948203970266e+01 4.7415905222543898e+01 1 0 0
1969 197 6 0.0000000000000000e+00 -2.8264613935208297e+02 -7.7045155107271810e+01 4.7143263526176582e+01 0 0 0
4332 380 8 0.0000000000000000e+00 -2.8733095905040256e+02 -7.2588267166561408e+01 5.5189145466216836e+01 1 0 0
4329 380 8 0.0000000000000000e+00 -2.6603632401554557e+02 -7.5539655998878700e+01 4.8353217538493872e+01 1 0 0
1970 197 5 0.0000000000000000e+00 -2.8099745771171348e+02 -8.3633567350419071e+01 5.4618004201134084e+01 0 0 0
4331 380 7 0.0000000000000000e+00 -2.7947324783368185e+02 -7.3914568470299628e+01 6.1431228675088143e+01 1 0 0
1354 136 5 0.0000000000000000e+00 -2.6128210673941118e+02 -7.8366413362737987e+01 5.7641855910056691e+01 0 0 0
1355 136 6 0.0000000000000000e+00 -2.6952348217674177e+02 -7.9111794808287712e+01 6.3868349354408181e+01 0 0 0
2417 242 5 0.0000000000000000e+00 -2.8301275627971546e+02 -6.7922576847500210e+01 7.3928604819582134e+01 0 0 0
1357 136 5 0.0000000000000000e+00 -2.7131720241518684e+02 -7.3396046913760998e+01 8.0630372264944171e+01 0 0 0
1356 136 6 0.0000000000000000e+00 -2.7306863863915476e+02 -7.3068259179093445e+01 7.0678887146117944e+01 0 0 0
2416 242 6 0.0000000000000000e+00 -2.8699914726274272e+02 -6.4607995750636846e+01 6.5305541685525696e+01 0 0 0
4330 380 8 0.0000000000000000e+00 -2.7106065549411738e+02 -7.2977080254595407e+01 5.6651303807576227e+01 1 0 0
4334 380 7 0.0000000000000000e+00 -2.9222601488409111e+02 -6.4124330003411089e+01 5.3050739386220435e+01 1 0 0
1353 136 6 0.0000000000000000e+00 -2.6308667594067765e+02 -6.9462416821807011e+01 6.0311079119474734e+01 0 0 0
5125 422 8 0.0000000000000000e+00 -2.6334982063966908e+02 -6.8833616176612665e+01 7.3198833856666582e+01 0 0 0
4661 397 8 0.0000000000000000e+00 -2.7541032651176107e+02 -6.2559637344802788e+01 7.6550099914666802e+01 0 0 0
2418 242 6 0.0000000000000000e+00 -2.8519616624910191e+02 -7.1831086078414856e+01 8.2905927463683511e+01 0 0 0
971 98 4 0.0000000000000000e+00 -2.9781932380940157e+02 -8.9364330531196686e+01 4.8580667277709786e+01 0 0 0
5126 422 7 0.0000000000000000e+00 -2.6040730588723750e+02 -7.7383331541355545e+01 6.8572250890992095e+01 0 0 0
972 98 6 0.0000000000000000e+00 -2.9621454554227495e+02 -9.7100726944675074e+01 5.5564788251027956e+01 0 0 0
5124 422 8 0.0000000000000000e+00 -2.6150472522041412e+02 -6.5439322161532530e+01 8.2720682371071078e+01 0 0 0
1352 136 6 0.0000000000000000e+00 -2.5549604528907403e+02 -6.4421242132736566e+01 5.7118641810201169e+01 0 0 0
943 95 6 0.0000000000000000e+00 -2.2488617772751820e+02 -8.3356950897684968e+01 4.5015614510492121e+01 0 0 0
5131 422 8 0.0000000000000000e+00 -2.3347485237685777e+02 -9.2524397404629795e+01 4.9429243981806685e+01 0 0 0
4783 404 8 0.0000000000000000e+00 -2.1022163826635162e+02 -7.9830826190862041e+01 6.2093797244174425e+01 0 0 0
5127 422 8 0.0000000000000000e+00 -2.5165543252547340e+02 -8.2201714640247246e+01 6.5727570717875807e+01 0 0 0
829 83 6 0.0000000000000000e+00 -2.4197591928473335e+02 -9.8598381748055544e+01 5.3693855473703216e+01 0 0 0
5130 422 8 0.0000000000000000e+00 -2.2972084762322532e+02 -9.5769792590928972e+01 5.7789733056800415e+01 0 0 0
4779 404 8 0.0000000000000000e+00 -2.1794039245182887e+02 -6.6687883185630767e+01 4.6330321344913244e+01 0 0 0
4780 404 8 0.0000000000000000e+00 -2.2433270694261174e+02 -7.3878028994010876e+01 4.3607308718932373e+01 0 0 0
5129 422 7 0.0000000000000000e+00 -2.3813547007992329e+02 -9.0254520049552426e+01 5.9722553496475427e+01 0 0 0
830 83 5 0.0000000000000000e+00 -2.4720073619058508e+02 -9.0372382713492698e+01 5.3822580555581673e+01 0 0 0
5128 422 8 0.0000000000000000e+00 -2.4419430714334268e+02 -8.1654559439887237e+01 5.9238057252944536e+01 0 0 0
947 95 5 0.0000000000000000e+00 -2.2723822975930096e+02 -7.1685763915902029e+01 6.6144276856116477e+01 0 0 0
946 95 6 0.0000000000000000e+00 -2.3430273573813599e+02 -7.6614346242355865e+01 6.0670180551845164e+01 0 0 0
4781 404 7 0.0000000000000000e+00 -2.2282112879974386e+02 -7.7908462163987579e+01 5.2545808213614521e+01 0 0 0
945 95 6 0.0000000000000000e+00 -2.3393247373903483e+02 -7.3055356652993581e+01 5.2060377086984964e+01 0 0 0
944 95 5 0.0000000000000000e+00 -2.3372162583553475e+02 -8.2568027775437457e+01 4.9775146944080547e+01 0 0 0
4782 404 8 0.0000000000000000e+00 -2.1659906840039565e+02 -7.3092149507317743e+01 5.8834151355932576e+01 0 0 0
1351 136 4 0.0000000000000000e+00 -2.4631352562145116e+02 -6.2202787380255884e+01 5.3459093081112151e+01 0 0 0
948 95 6 0.0000000000000000e+00 -2.3175984884646212e+02 -6.4386600754742688e+01 7.1158106845412718e+01 0 0 0
4785 404 8 0.0000000000000000e+00 -2.0964590419842290e+02 -8.3118853212398164e+01 7.7948513429744693e+01 0 0 0
4110 368 8 0.0000000000000000e+00 -2.9927651039160429e+02 -3.2043271167651355e+01 4.8591908273291068e+01 0 0 0
4464 387 7 0.0000000000000000e+00 -2.8475138898240203e+02 -4.1055876258286347e+01 4.4183890657821422e+01 1 0 0
4660 397 7 0.0000000000000000e+00 -2.8376914088245996e+02 -5.7030848336868658e+01 7.3519191955063604e+01 0 0 0
2596 260 6 0.0000000000000000e+00 -2.9559048785662094e+02 -5.7416337185291226e+01 6.3663749495380081e+01 1 0 0
802 81 6 0.0000000000000000e+00 -2.7600656571712960e+02 -5.2965003565224933e+01 4.3960509539320832e+01 0 0 0
2415 242 6 0.0000000000000000e+00 -2.8361568987070279e+02 -5.8070498635854342e+01 5.8372344532434802e+01 0 0 0
4662 397 8 0.0000000000000000e+00 -2.6705922948992441e+02 -5.7091887502464090e+01 7.5554375493001501e+01 0 0 0
4056 366 7 0.0000000000000000e+00 -2.6211631305991318e+02 -4.9234489956985769e+01 4.3888941027946828e+01 0 0 0
2414 242 5 0.0000000000000000e+00 -2.8623803366639186e+02 -5.4381848230475747e+01 4.9112829075454776e+01 0 0 0
803 81 6 0.0000000000000000e+00 -2.6776299196412879e+02 -5.7638903483864269e+01 4.7087885535963636e+01 0 0 0
4466 387 8 0.0000000000000000e+00 -2.8338275229928553e+02 -2.6589173667952309e+01 4.5238095845316622e+01 1 0 0
2599 260 6 0.0000000000000000e+00 -2.8239582030770998e+02 -3.8344288644662996e+01 5.6925667246953495e+01 1 0 0
4465 387 8 0.0000000000000000e+00 -2.7751643013328470e+02 -3.4393974801304289e+01 4.6271672955358675e+01 1 0 0
804 81 5 0.0000000000000000e+00 -2.6377502695282902e+02 -5.2002315094947058e+01 5.4367782438471103e+01 0 0 0
2597 260 5 0.0000000000000000e+00 -2.8917454686559898e+02 -5.0598438593696898e+01 6.5836774592001021e+01 1 0 0
2413 242 6 0.0000000000000000e+00 -2.9387929716453016e+02 -5.0736250000012802e+01 5.4904657853689137e+01 0 0 0
2598 260 6 0.0000000000000000e+00 -2.8313096787192211e+02 -4.8228223572795045e+01 5.9067050993865003e+01 1 0 0
5569 470 11 0.0000000000000000e+00 -2.5683541694626626e+02 -3.9638255044064799e+01 7.5399743109205531e+01 1 0 0
1696 170 6 0.0000000000000000e+00 -2.6274564848210326e+02 -3.0067468483827852e+01 4.7998502225057763e+01 0 0 0
2435 244 6 0.0000000000000000e+00 -2.8798108956772251e+02 -3.9652174735323150e+01 7.4400741115177965e+01 0 0 0
2434 244 5 0.0000000000000000e+00 -2.9561331834303002e+02 -3.3215604748738542e+01 7.4939322632970587e+01 0 0 0
4663 397 9 0.0000000000000000e+00 -2.7126036266904129e+02 -4.9461904170070888e+01 7.0742382343507103e+01 0 0 0
5570 470 10 0.0000000000000000e+00 -2.6244738088366944e+02 -4.7252171528633525e+01 7.7853798322831622e+01 1 0 0
4507 389 8 0.0000000000000000e+00 -2.7860625622801518e+02 -3.1378465527643524e+01 6.9703311517751231e+01 1 0 0
2600 260 5 0.0000000000000000e+00 -2.7705660273567850e+02 -4.4570443751632460e+01 5.1168710414139760e+01 1 0 0
4508 389 7 0.0000000000000000e+00 -2.7501161880497511e+02 -2.9750448255838201e+01 7.8758461880885235e+01 1 0 0
1699 170 6 0.0000000000000000e+00 -2.6647021591020371e+02 -3.7887147797082143e+01 6.8903133134737217e+01 0 0 0
1700 170 5 0.0000000000000000e+00 -2.7214313590831728e+02 -4.0236502099873775e+01 7.6141082104265834e+01 0 0 0
1698 170 6 0.0000000000000000e+00 -2.6609427431674033e+02 -3.7330202413513568e+01 5.9113868228493800e+01 0 0 0
1697 170 5 0.0000000000000000e+00 -2.6881659259011701e+02 -2.8317547076745825e+01 5.5714609733059326e+01 0 0 0
4659 397 8 0.0000000000000000e+00 -2.8125535070789272e+02 -4.7937535704635351e+01 7.6215820514750561e+01 0 0 0
4506 389 8 0.0000000000000000e+00 -2.8584106967766991e+02 -2.7847696798734511e+01 6.3210984569335757e+01 1 0 0
810 81 5 0.0000000000000000e+00 -2.6556893702074092e+02 -2.9793214116394015e+01 7.5459156159470226e+01 0 0 0
4505 389 7 0.0000000000000000e+00 -2.9518649362578554e+02 -3.0357531129996964e+01 6.5358417130591562e+01 1 0 0
4111 368 8 0.0000000000000000e+00 -2.9582034532869380e+02 -2.3608959234445841e+01 5.2120873112947308e+01 0 0 0
4112 368 9 0.0000000000000000e+00 -2.8642206385102361e+02 -2.1893945147111953e+01 5.4978735002587165e+01 0 0 0
805 81 6 0.0000000000000000e+00 -2.5702040391236397e+02 -4.6962013022642765e+01 5.7356642490575176e+01 0 0 0
4658 397 8 0.0000000000000000e+00 -2.8843828149163238e+02 -4.8578736452537420e+01 8.2815942015762801e+01 0 0 0
809 81 6 0.0000000000000000e+00 -2.5674385284737747e+02 -3.0550495841317861e+01 6.9823254334131789e+01 0 0 0
4097 368 7 0.0000000000000000e+00 -2.6648845407839622e+02 -1.9233266249285570e+01 6.2984923785135507e+01 0 0 0
2436 244 6 0.0000000000000000e+00 -2.8163678092564362e+02 -3.8127357067016021e+01 8.2490125949438635e+01 0 0 0
5568 470 10 0.0000000000000000e+00 -2.5438812414975689e+02 -3.2714388015441031e+01 8.2205901417545533e+01 1 0 0