LAMMPS data file via write_data, version 5 Jun 2019, timestep = 450000000

5660 atoms
11 atom types
5921 bonds
7 bond types
4660 angles
4 angle types

-3.0000000000000000e+02 3.0000000000000000e+02 xlo xhi
-3.0000000000000000e+02 3.0000000000000000e+02 ylo yhi
0.0000000000000000e+00 3.0000000000000000e+02 zlo zhi

Masses

1 1000
2 450
3 450
4 11000
5 7000
6 450
7 450
8 450
9 450
10 450
11 20000

Pair Coeffs # lj/cut

1 0.24 10
2 0.24 10
3 0.24 10
4 0.24 10
5 0.24 10
6 0.24 10
7 0.24 10
8 0.24 10
9 0.24 10
10 0.24 10
11 0.24 30

Angle Coeffs # cosine

1 1
2 1
3 1
4 1

Atoms # full

5443 439 7 0.0000000000000000e+00 -2.2811219302424371e+02 -1.0813887952203065e+02 3.9005578236507475e+01 0 0 0
5444 439 8 0.0000000000000000e+00 -2.1941102669251907e+02 -1.0447798363597215e+02 4.0975352003067705e+01 0 0 0
383 39 2 0.0000000000000000e+00 -2.0672764174425700e+02 -1.0134040568190687e+02 1.8755712781455852e+01 0 0 0
795 80 2 0.0000000000000000e+00 -1.7264638721703500e+02 -1.0752800258135298e+02 3.1968990710862766e+01 0 0 0
796 80 2 0.0000000000000000e+00 -1.7033622857577950e+02 -1.0077012136296189e+02 3.9120686623322598e+01 0 0 0
794 80 3 0.0000000000000000e+00 -1.7042519180103034e+02 -1.1247751415223881e+02 2.4115970615927175e+01 0 0 0
793 80 2 0.0000000000000000e+00 -1.6712930815553128e+02 -1.1123955183374692e+02 1.4863632929727379e+01 0 0 0
991 100 4 0.0000000000000000e+00 -2.7563614724894313e+02 -8.9118431849526786e+01 2.6077902863395579e+01 0 0 0
992 100 6 0.0000000000000000e+00 -2.7416497256261118e+02 -7.9870604105081483e+01 2.8296534834000067e+01 0 0 0
1821 183 4 0.0000000000000000e+00 -2.6646072370424702e+02 -7.3128214383169677e+01 1.3289010197705778e+01 1 0 0
417 42 3 0.0000000000000000e+00 -2.8539123411303194e+02 -8.7519881007136036e+01 2.1864683884575083e+01 1 0 0
5336 433 8 0.0000000000000000e+00 -2.6914084005103365e+02 -7.4911349726159628e+01 3.6471420674058351e+01 0 0 0
993 100 6 0.0000000000000000e+00 -2.7120019299864930e+02 -7.0624498916703445e+01 2.7565335317140704e+01 0 0 0
994 100 5 0.0000000000000000e+00 -2.6220081257807612e+02 -6.9714523541865020e+01 3.0555589812587051e+01 0 0 0
416 42 2 0.0000000000000000e+00 -2.8425315914332583e+02 -9.4976586281892608e+01 1.5537744105652243e+01 1 0 0
415 42 2 0.0000000000000000e+00 -2.7785310891916396e+02 -8.8591928633570021e+01 1.2321319944367145e+01 1 0 0
5337 433 8 0.0000000000000000e+00 -2.6744713205541404e+02 -6.5120267104584954e+01 3.9037996965201039e+01 0 0 0
1822 183 6 0.0000000000000000e+00 -2.6498306035159857e+02 -6.3305547993193251e+01 1.1580955188017930e+01 1 0 0
414 42 3 0.0000000000000000e+00 -2.7590919984869754e+02 -7.8722207707631100e+01 1.0704886449798286e+01 1 0 0
413 42 2 0.0000000000000000e+00 -2.7820973067221752e+02 -6.9277373702522553e+01 1.1214936172678593e+01 1 0 0
5335 433 7 0.0000000000000000e+00 -2.6805683900418308e+02 -8.4368192946166559e+01 3.8759225759553495e+01 0 0 0
420 42 3 0.0000000000000000e+00 -2.9388400081029693e+02 -7.1603816579689180e+01 2.7385947541064549e+01 1 0 0
418 42 2 0.0000000000000000e+00 -2.8974537315045961e+02 -7.8771810308658331e+01 2.0390174563463138e+01 1 0 0
995 100 6 0.0000000000000000e+00 -2.5726760382422435e+02 -7.7842497307686600e+01 3.2642548770578195e+01 0 0 0
5338 433 7 0.0000000000000000e+00 -2.6044903695500358e+02 -5.9778069289955447e+01 3.4006486709969970e+01 0 0 0
419 42 2 0.0000000000000000e+00 -2.9943453197923293e+02 -7.5319192683227186e+01 2.0324650209170155e+01 1 0 0
384 39 3 0.0000000000000000e+00 -2.1483761746221541e+02 -9.5897410076307949e+01 1.9975645676828535e+01 0 0 0
2599 260 6 0.0000000000000000e+00 -2.4627835905740807e+02 -6.9139017656090033e+01 2.5629228131202122e+01 1 0 0
2600 260 5 0.0000000000000000e+00 -2.4529123140593708e+02 -7.8634129382607782e+01 2.9468075094795676e+01 1 0 0
2598 260 6 0.0000000000000000e+00 -2.5084505735805453e+02 -6.5800089923652081e+01 1.6897124604360123e+01 1 0 0
2596 260 6 0.0000000000000000e+00 -2.4437364545293286e+02 -6.2792112921231791e+01 4.0389180774120996e+00 1 0 0
1011 102 4 0.0000000000000000e+00 -2.4187072098172089e+02 -6.1240245269759242e+01 3.4521858525859201e+01 1 0 0
2595 260 6 0.0000000000000000e+00 -2.3671264226075129e+02 -6.5376920956081960e+01 9.9683596630347608e+00 1 0 0
386 39 2 0.0000000000000000e+00 -2.1408294391409294e+02 -8.5119543604574687e+01 1.8868076029851618e+01 0 0 0
971 98 4 0.0000000000000000e+00 -2.0924156500102359e+02 -9.0777068213127237e+01 2.9095360656012193e+01 0 0 0
387 39 3 0.0000000000000000e+00 -2.1128338677474270e+02 -7.6008366430009062e+01 1.5893967940141078e+01 0 0 0
385 39 2 0.0000000000000000e+00 -2.1602496982274567e+02 -9.1355132337923692e+01 1.1331027388222543e+01 0 0 0
972 98 6 0.0000000000000000e+00 -2.1907586432188043e+02 -9.1477713650048116e+01 3.0791704283138550e+01 0 0 0
973 98 6 0.0000000000000000e+00 -2.2606208490193430e+02 -9.6665968351765343e+01 3.6839100152018389e+01 0 0 0
2591 260 4 0.0000000000000000e+00 -2.1681702655527621e+02 -7.2748307190617354e+01 6.9053304918529319e+00 1 0 0
2593 260 6 0.0000000000000000e+00 -2.1975876872718908e+02 -6.6558676175329239e+01 1.9446071442851014e+01 1 0 0
2592 260 6 0.0000000000000000e+00 -2.2262021017908077e+02 -7.5062465391209457e+01 1.4503032620357384e+01 1 0 0
2594 260 5 0.0000000000000000e+00 -2.2886406989860751e+02 -6.6732996360763451e+01 1.6697316909490855e+01 1 0 0
974 98 5 0.0000000000000000e+00 -2.3323656263515349e+02 -9.8677058035083846e+01 4.2502865188493253e+01 0 0 0
577 58 3 0.0000000000000000e+00 -2.5128996252938126e+02 -6.0659535727171395e+01 4.0737006331524469e+01 0 0 0
1039 104 6 0.0000000000000000e+00 -2.1705136524867441e+02 -6.4532910842885670e+01 3.4582780336624630e+01 0 0 0
1712 172 6 0.0000000000000000e+00 -2.0911838777571469e+02 -7.9886460056931909e+01 3.6861429138903894e+01 0 0 0
1040 104 5 0.0000000000000000e+00 -2.0903813027695892e+02 -6.9132267546510747e+01 3.9041898504929520e+01 0 0 0
821 83 4 0.0000000000000000e+00 -2.3122482096438247e+02 -5.9795925823645362e+01 3.0154914001176131e+01 0 0 0
1038 104 6 0.0000000000000000e+00 -2.1273343106086676e+02 -6.1029032392272939e+01 4.2576604670392882e+01 0 0 0
1012 102 6 0.0000000000000000e+00 -2.4166452087139612e+02 -6.8003492104480245e+01 4.1740561600172448e+01 1 0 0
382 39 2 0.0000000000000000e+00 -1.9992832056255565e+02 -9.9193304427399141e+01 1.1262654440570998e+01 0 0 0
390 39 3 0.0000000000000000e+00 -2.0613088014268777e+02 -6.9033963187043767e+01 2.8442825587552207e+01 0 0 0
388 39 2 0.0000000000000000e+00 -2.0465500192377942e+02 -7.0825019529222644e+01 1.0137911266986933e+01 0 0 0
381 39 1 0.0000000000000000e+00 -1.9326559976037791e+02 -9.4662166520760010e+01 5.0285799999999998e+00 0 0 0
1711 172 4 0.0000000000000000e+00 -2.0392019701509855e+02 -8.0597294208269389e+01 2.8204608346211867e+01 0 0 0
389 39 2 0.0000000000000000e+00 -2.0302414144190408e+02 -7.2170971626501583e+01 2.0305701047331304e+01 0 0 0
1033 104 6 0.0000000000000000e+00 -1.7598982394527147e+02 -6.4872596203805443e+01 3.2533040927940739e+01 0 0 0
797 80 3 0.0000000000000000e+00 -1.7296663660956838e+02 -9.1671699254331003e+01 4.2493352920309313e+01 0 0 0
1032 104 6 0.0000000000000000e+00 -1.7490319951355198e+02 -7.4957526925151114e+01 3.3261457138229900e+01 0 0 0
1034 104 5 0.0000000000000000e+00 -1.8027443028655267e+02 -6.6401018880467618e+01 4.1367222401460687e+01 0 0 0
2588 259 6 0.0000000000000000e+00 -1.6599324892369637e+02 -6.2290458908209843e+01 3.8552439987117509e+01 0 0 0
1035 104 6 0.0000000000000000e+00 -1.9035770785328938e+02 -6.8665130455025604e+01 4.1190957951423044e+01 0 0 0
1031 104 4 0.0000000000000000e+00 -1.7416000688107957e+02 -8.0493430598268944e+01 4.2137467444353327e+01 0 0 0
1036 104 6 0.0000000000000000e+00 -1.9520385669922837e+02 -6.0160395889494652e+01 3.8470627586630513e+01 0 0 0
4878 409 8 0.0000000000000000e+00 -1.6325839891026948e+02 -7.9063823090819341e+01 4.0267711065415241e+01 0 0 0
412 42 2 0.0000000000000000e+00 -2.7937811304856388e+02 -5.9138603891180679e+01 1.2284698600631016e+01 1 0 0
1823 183 6 0.0000000000000000e+00 -2.6035134135834954e+02 -5.4200022469069118e+01 1.1964608788886046e+01 1 0 0
411 42 1 0.0000000000000000e+00 -2.8571014124369441e+02 -5.6807570236131035e+01 5.0286200000000001e+00 1 0 0
1824 183 5 0.0000000000000000e+00 -2.6810953945155870e+02 -5.3115503822030753e+01 1.7690132548736432e+01 1 0 0
1825 183 6 0.0000000000000000e+00 -2.6629283567290599e+02 -4.5835974897373355e+01 2.3404221052580898e+01 1 0 0
1826 183 6 0.0000000000000000e+00 -2.7159171489879151e+02 -4.0548803655183370e+01 3.0063707646308302e+01 1 0 0
572 58 2 0.0000000000000000e+00 -2.5998282252253654e+02 -4.4420492927733790e+01 1.0583663141634387e+01 0 0 0
1827 183 5 0.0000000000000000e+00 -2.8040406585443310e+02 -3.9231281646167893e+01 3.4248848059362125e+01 1 0 0
571 58 1 0.0000000000000000e+00 -2.6803849483238014e+02 -4.5452391151814886e+01 5.0072700000000001e+00 0 0 0
1431 144 4 0.0000000000000000e+00 -2.8818347271942713e+02 -4.2975986095621558e+01 2.4716695753849336e+01 0 0 0
5339 433 8 0.0000000000000000e+00 -2.6174066206075082e+02 -5.3078721792583650e+01 4.0473177056584937e+01 0 0 0
1432 144 6 0.0000000000000000e+00 -2.9444384477335723e+02 -4.2662595375978611e+01 3.2161182315535250e+01 0 0 0
752 76 2 0.0000000000000000e+00 -2.5810800042888292e+02 -3.0308016020949118e+01 1.3360432710936522e+01 0 0 0
754 76 3 0.0000000000000000e+00 -2.6887597654673101e+02 -2.8881004639915385e+01 2.5943482794605345e+01 0 0 0
755 76 2 0.0000000000000000e+00 -2.6982579024547039e+02 -2.8786574289124925e+01 3.5948932227043230e+01 0 0 0
753 76 2 0.0000000000000000e+00 -2.6411752775165974e+02 -3.5306869445621025e+01 2.0417323802182690e+01 0 0 0
758 76 2 0.0000000000000000e+00 -2.9228408875312044e+02 -3.1026710208248343e+01 3.0470500670693067e+01 0 0 0
757 76 3 0.0000000000000000e+00 -2.8881826798980234e+02 -2.6377052925386355e+01 3.8491646731006504e+01 0 0 0
756 76 2 0.0000000000000000e+00 -2.7949400968661519e+02 -2.9789028895282094e+01 3.7988765684537590e+01 0 0 0
3151 316 4 0.0000000000000000e+00 -2.7517028629944042e+02 -2.0910823305293420e+01 2.9932961695615518e+01 1 0 0
573 58 2 0.0000000000000000e+00 -2.5490108006737367e+02 -4.1559743315638791e+01 1.9178659818853617e+01 0 0 0
760 76 3 0.0000000000000000e+00 -2.9900046236977983e+02 -4.4239407031307223e+01 2.2461371989309107e+01 0 0 0
2752 276 6 0.0000000000000000e+00 -2.5144213172119117e+02 -2.1795374035724311e+01 2.5621146235096344e+01 0 0 0
2597 260 5 0.0000000000000000e+00 -2.5070092831393345e+02 -5.8170695016193193e+01 1.0634312527512893e+01 1 0 0
2751 276 4 0.0000000000000000e+00 -2.5274209251373782e+02 -3.1759921269864307e+01 2.5635869618998008e+01 0 0 0
574 58 3 0.0000000000000000e+00 -2.5284278833882200e+02 -4.2856231618416437e+01 2.8736998105771654e+01 0 0 0
828 83 6 0.0000000000000000e+00 -2.2210514617443098e+02 -5.4952592925783215e+01 3.7599779564130927e+01 0 0 0
822 83 6 0.0000000000000000e+00 -2.3625490480164763e+02 -5.3838464999138125e+01 2.4021788318329286e+01 0 0 0
575 58 2 0.0000000000000000e+00 -2.4607412640553861e+02 -4.7078730985493166e+01 3.4822078073696751e+01 0 0 0
751 76 1 0.0000000000000000e+00 -2.4994389100834556e+02 -2.9168744966838133e+01 6.8810700000000002e+00 0 0 0
576 58 2 0.0000000000000000e+00 -2.5287185127159142e+02 -5.4469028259788779e+01 3.2448664122327131e+01 0 0 0
194 20 3 0.0000000000000000e+00 -2.3449927561068031e+02 -4.1042476629685922e+01 6.8001168415680855e+00 0 0 0
2064 207 5 0.0000000000000000e+00 -2.4320075232517084e+02 -3.0250858127910856e+01 3.0115520768400181e+01 1 0 0
2065 207 6 0.0000000000000000e+00 -2.4718553238905645e+02 -3.4810181212023672e+01 3.8228631066469227e+01 1 0 0
823 83 6 0.0000000000000000e+00 -2.4625971497600688e+02 -5.0034839074619413e+01 2.3859913840731476e+01 0 0 0
824 83 5 0.0000000000000000e+00 -2.4358955861059727e+02 -5.7430802044129308e+01 1.6865623124298832e+01 0 0 0
2411 242 4 0.0000000000000000e+00 -2.4009598936968666e+02 -4.1241413479294096e+01 2.6340338093492882e+01 0 0 0
193 20 2 0.0000000000000000e+00 -2.3247833026520769e+02 -3.1790147798761531e+01 3.7723208534268609e+00 0 0 0
2063 207 6 0.0000000000000000e+00 -2.4340979234067484e+02 -2.6863444049257843e+01 2.0422993777524873e+01 1 0 0
192 20 2 0.0000000000000000e+00 -2.3136669512121534e+02 -2.1758168884827857e+01 3.2361590789933636e+00 0 0 0
195 20 2 0.0000000000000000e+00 -2.3173536748285827e+02 -4.4288876325359148e+01 1.5788992346628664e+01 0 0 0
2062 207 6 0.0000000000000000e+00 -2.3878143682904448e+02 -3.2040494798863193e+01 1.2628798173489864e+01 1 0 0
196 20 2 0.0000000000000000e+00 -2.2944030424048879e+02 -4.5998244547793064e+01 2.4925308441190847e+01 0 0 0
2137 214 5 0.0000000000000000e+00 -2.3270698774495102e+02 -2.1149249746005271e+01 3.8590343234916773e+01 0 0 0
826 83 6 0.0000000000000000e+00 -2.2473889479964890e+02 -5.6901075779920788e+01 1.7842451750534998e+01 0 0 0
827 83 5 0.0000000000000000e+00 -2.2222417181855906e+02 -5.7210631527599666e+01 2.7872667424062314e+01 0 0 0
2420 242 5 0.0000000000000000e+00 -2.1208645714842623e+02 -5.1078722310764604e+01 3.3011319967139755e+01 0 0 0
761 77 1 0.0000000000000000e+00 -2.1935711609267565e+02 -4.2546570453994093e+01 5.0072700000000001e+00 0 0 0
764 77 3 0.0000000000000000e+00 -2.3077022388334194e+02 -3.6015932653489813e+01 2.2201039887266258e+01 0 0 0
2412 242 6 0.0000000000000000e+00 -2.3346535037448288e+02 -3.9625818130346843e+01 3.3521192733633590e+01 0 0 0
2413 242 6 0.0000000000000000e+00 -2.2409416502996433e+02 -3.7893393583433173e+01 3.6199895079875205e+01 0 0 0
763 77 2 0.0000000000000000e+00 -2.2412732872961175e+02 -3.6837172617393122e+01 1.4518807359180341e+01 0 0 0
762 77 2 0.0000000000000000e+00 -2.1555258966940883e+02 -3.4527231658185862e+01 9.8645873256977783e+00 0 0 0
2414 242 5 0.0000000000000000e+00 -2.1542605059891406e+02 -4.2117568079599728e+01 3.7782118804018104e+01 0 0 0
825 83 6 0.0000000000000000e+00 -2.3380078574636971e+02 -5.6722980586486493e+01 1.4770129710648414e+01 0 0 0
765 77 2 0.0000000000000000e+00 -2.2304144044671494e+02 -3.1839055416689252e+01 2.5801329713756793e+01 0 0 0
2061 207 4 0.0000000000000000e+00 -2.3045842506359867e+02 -2.8460820190623277e+01 1.5727029239954442e+01 1 0 0
768 77 2 0.0000000000000000e+00 -2.1185104267526489e+02 -3.5451799729783609e+01 1.9408433448297252e+01 0 0 0
766 77 2 0.0000000000000000e+00 -2.2149186774934032e+02 -2.2198042763097504e+01 2.4311176256232333e+01 0 0 0
767 77 3 0.0000000000000000e+00 -2.1874200493440867e+02 -2.8360200594706907e+01 1.6541723366471562e+01 0 0 0
197 20 3 0.0000000000000000e+00 -2.3381551434395490e+02 -4.9526196220981198e+01 3.3085594557569145e+01 0 0 0
3927 359 8 0.0000000000000000e+00 -2.4374841490501387e+02 -2.3337767950313626e+01 3.7844954000856944e+01 0 0 0
1900 190 5 0.0000000000000000e+00 -2.1044748629153281e+02 -3.0138652035165048e+01 3.9832223009534133e+01 0 0 0
783 79 2 0.0000000000000000e+00 -2.1355128454844643e+02 -2.3406015739526058e+01 4.4010996253484729e+00 1 0 0
2138 214 6 0.0000000000000000e+00 -2.3334568316902303e+02 -2.3983376730948688e+01 2.9383416176777281e+01 0 0 0
3926 359 7 0.0000000000000000e+00 -2.3693952566948846e+02 -3.1179536033840435e+01 3.8178613515870971e+01 0 0 0
3928 359 8 0.0000000000000000e+00 -2.5292213172039149e+02 -2.5885815239994692e+01 4.0766235776766521e+01 0 0 0
198 20 2 0.0000000000000000e+00 -2.3903150298502720e+02 -5.2813385600456414e+01 4.1193179346923444e+01 0 0 0
3924 359 8 0.0000000000000000e+00 -2.2684864676859749e+02 -4.6824679136385932e+01 4.2309187682020088e+01 0 0 0
2139 214 6 0.0000000000000000e+00 -2.3209938012503346e+02 -1.9590782643640871e+01 2.0425762985887310e+01 0 0 0
1091 110 4 0.0000000000000000e+00 -1.6884684395898481e+02 -5.7872680029145677e+01 2.1863194665879877e+01 0 0 0
769 77 2 0.0000000000000000e+00 -2.0378812327381863e+02 -3.6181401847169106e+01 2.4859962148920982e+01 0 0 0
2419 242 6 0.0000000000000000e+00 -2.0402241905163822e+02 -4.5388103287325784e+01 3.5616055496211260e+01 0 0 0
1899 190 6 0.0000000000000000e+00 -2.0539418321097335e+02 -2.6441810291818701e+01 3.2337334730664800e+01 0 0 0
770 77 3 0.0000000000000000e+00 -1.9411741357775463e+02 -3.7538243108746116e+01 2.4423609697768065e+01 0 0 0
13 2 2 0.0000000000000000e+00 -1.6418577758918093e+02 -4.9771320644159680e+01 1.4550795994841478e+01 0 0 0
12 2 2 0.0000000000000000e+00 -1.7445412649985491e+02 -5.0153422944780310e+01 1.4516693961782600e+01 0 0 0
11 2 1 0.0000000000000000e+00 -1.8128965544090721e+02 -5.4878908434831537e+01 8.3056099999999997e+00 0 0 0
1037 104 5 0.0000000000000000e+00 -2.0439612999567350e+02 -5.5914960888547348e+01 3.9044051701111755e+01 0 0 0
1100 110 5 0.0000000000000000e+00 -1.8621391975489297e+02 -5.5776243094174745e+01 3.3814605062474783e+01 0 0 0
3782 351 8 0.0000000000000000e+00 -1.9803193275436234e+02 -3.5116459064944785e+01 3.5881811723448259e+01 0 0 0
3783 351 7 0.0000000000000000e+00 -1.9059346576233150e+02 -4.1447371878311685e+01 3.6916974885592893e+01 0 0 0
2584 259 5 0.0000000000000000e+00 -1.7453006681983928e+02 -3.1092280976176919e+01 3.7386346780837506e+01 0 0 0
1092 110 6 0.0000000000000000e+00 -1.7047576357159895e+02 -5.6042596339754233e+01 3.1499158498706286e+01 0 0 0
1093 110 6 0.0000000000000000e+00 -1.6537222737387276e+02 -5.1315654977039266e+01 3.8883590380908508e+01 0 0 0
2583 259 6 0.0000000000000000e+00 -1.7528598207776702e+02 -2.2495539125724527e+01 3.3534173569362665e+01 0 0 0
4885 409 7 0.0000000000000000e+00 -1.7021402671083735e+02 -2.2601215837214919e+01 4.2702383094576746e+01 0 0 0
788 79 2 0.0000000000000000e+00 -1.9024126447758596e+02 -2.8606714336189125e+01 3.2598105941653664e+01 1 0 0
787 79 3 0.0000000000000000e+00 -1.8719457632241875e+02 -2.9798762520131763e+01 2.3247349192879604e+01 1 0 0
786 79 2 0.0000000000000000e+00 -1.9529378085034003e+02 -2.4364980882701158e+01 2.3979443260446384e+01 1 0 0
2585 259 6 0.0000000000000000e+00 -1.7676534938465252e+02 -4.0847925158137976e+01 3.4630433114685985e+01 0 0 0
3781 351 8 0.0000000000000000e+00 -1.9540902708666735e+02 -2.5901084366196581e+01 4.0207619556680228e+01 0 0 0
789 79 2 0.0000000000000000e+00 -1.8463537004676431e+02 -2.4720039928303287e+01 3.9533579978411417e+01 1 0 0
2586 259 6 0.0000000000000000e+00 -1.7715941600414536e+02 -4.7818252963560155e+01 4.1698872991231561e+01 0 0 0
784 79 3 0.0000000000000000e+00 -2.0602359175463215e+02 -2.0805311278223957e+01 1.1215610823526845e+01 1 0 0
1018 102 6 0.0000000000000000e+00 -2.5967362500165643e+02 -1.1098272488340466e+02 5.3981518270095400e+01 1 0 0
1017 102 5 0.0000000000000000e+00 -2.6318236029318075e+02 -1.0148480619535864e+02 5.2680134326160207e+01 1 0 0
1020 102 5 0.0000000000000000e+00 -2.5410088623540182e+02 -1.2737183185214512e+02 5.9361363563833415e+01 1 0 0
1019 102 6 0.0000000000000000e+00 -2.5329403754098163e+02 -1.1826880077440033e+02 5.4516460516693570e+01 1 0 0
996 100 6 0.0000000000000000e+00 -2.5822453604969218e+02 -7.4970095049701044e+01 4.2940971687479795e+01 0 0 0
1016 102 6 0.0000000000000000e+00 -2.5617315313923990e+02 -9.5572032593535070e+01 4.8751321815537196e+01 1 0 0
5334 433 8 0.0000000000000000e+00 -2.7581332193548906e+02 -8.4043660030479359e+01 4.4875776461396406e+01 0 0 0
931 94 4 0.0000000000000000e+00 -2.7635438624118876e+02 -6.1771871396027635e+01 5.6008323398352843e+01 1 0 0
998 100 6 0.0000000000000000e+00 -2.6489515447682936e+02 -9.0362248166643951e+01 5.1076414834599937e+01 0 0 0
999 100 6 0.0000000000000000e+00 -2.7049269739024101e+02 -9.2632943286355399e+01 5.8874466550151190e+01 0 0 0
1000 100 5 0.0000000000000000e+00 -2.7298556666931205e+02 -8.9024299625659239e+01 6.7926457875069119e+01 0 0 0
997 100 5 0.0000000000000000e+00 -2.6341625202561170e+02 -8.0481839279113743e+01 4.9737213406848639e+01 0 0 0
5333 433 8 0.0000000000000000e+00 -2.8275614118922061e+02 -8.8896590951810524e+01 5.0188255963801552e+01 0 0 0
5332 433 7 0.0000000000000000e+00 -2.8259963060051678e+02 -8.3506602069738250e+01 5.9122365110716785e+01 0 0 0
978 98 6 0.0000000000000000e+00 -2.5688921293047486e+02 -8.4990852052637209e+01 6.1538285038745990e+01 0 0 0
5331 433 8 0.0000000000000000e+00 -2.8448533700490304e+02 -9.0770183611209873e+01 6.6469267357032564e+01 0 0 0
979 98 6 0.0000000000000000e+00 -2.6153307961305541e+02 -7.6410453274000417e+01 6.3116610267985997e+01 0 0 0
980 98 5 0.0000000000000000e+00 -2.6580784882583134e+02 -6.9076385601297332e+01 6.7959230311910659e+01 0 0 0
5329 433 7 0.0000000000000000e+00 -2.7330529886915656e+02 -7.6358969838643389e+01 7.3755317693314737e+01 0 0 0
5330 433 8 0.0000000000000000e+00 -2.7992619345682016e+02 -8.3157691237760403e+01 7.0497741715984432e+01 0 0 0
580 58 3 0.0000000000000000e+00 -2.7600772054439227e+02 -7.1148279897523267e+01 5.0742049655802674e+01 0 0 0
579 58 2 0.0000000000000000e+00 -2.6647360918274427e+02 -6.9872689586540147e+01 4.9809582076579609e+01 0 0 0
578 58 2 0.0000000000000000e+00 -2.5714039739225956e+02 -6.5782114802213187e+01 4.7466800783965297e+01 0 0 0
4334 380 7 0.0000000000000000e+00 -2.9446099227278711e+02 -5.9761325458581560e+01 5.5500883899807505e+01 1 0 0
936 94 6 0.0000000000000000e+00 -2.5591484997889452e+02 -6.0836369061245584e+01 8.0361423357657486e+01 1 0 0
5445 439 8 0.0000000000000000e+00 -2.1986909532642625e+02 -9.9399798680982173e+01 4.9246041146105554e+01 0 0 0
1013 102 6 0.0000000000000000e+00 -2.3738955194235919e+02 -7.6161349589435474e+01 4.6638854661482249e+01 1 0 0
1015 102 6 0.0000000000000000e+00 -2.4672582068119036e+02 -9.4361771422732460e+01 4.6160167319720706e+01 1 0 0
977 98 5 0.0000000000000000e+00 -2.4734745381337962e+02 -8.3841626715726562e+01 5.9523903989104497e+01 0 0 0
1014 102 5 0.0000000000000000e+00 -2.4187668329202702e+02 -8.5056388873830855e+01 4.6825659615788616e+01 1 0 0
976 98 6 0.0000000000000000e+00 -2.4287706624127733e+02 -9.2374986778729308e+01 5.7265301564761721e+01 0 0 0
975 98 6 0.0000000000000000e+00 -2.3840177645805866e+02 -9.8808504539696585e+01 5.0887864578141233e+01 0 0 0
5447 439 8 0.0000000000000000e+00 -2.2562620182659350e+02 -8.9776203270610793e+01 6.1092639519084713e+01 0 0 0
5448 439 8 0.0000000000000000e+00 -2.2773214300455845e+02 -8.2719628102991649e+01 5.3899035856928577e+01 0 0 0
5446 439 7 0.0000000000000000e+00 -2.1703304977120169e+02 -9.3228625033289418e+01 5.6814843180424610e+01 0 0 0
5449 439 7 0.0000000000000000e+00 -2.2216247731325913e+02 -7.5673476699238009e+01 5.9429987205732928e+01 0 0 0
5450 439 8 0.0000000000000000e+00 -2.1369738074436214e+02 -6.9863381018782746e+01 6.0851792043973788e+01 0 0 0
1714 172 5 0.0000000000000000e+00 -2.1416170453933276e+02 -8.1905601170416247e+01 5.5532502488900143e+01 0 0 0
1713 172 6 0.0000000000000000e+00 -2.1162113428789539e+02 -8.2742692013795534e+01 4.5919185641400787e+01 0 0 0
4354 381 8 0.0000000000000000e+00 -2.1463957041161842e+02 -6.1986673686333795e+01 8.0922950971261528e+01 0 0 0
937 94 5 0.0000000000000000e+00 -2.4757465034969192e+02 -6.4614623119220241e+01 8.4721464640350561e+01 1 0 0
2761 277 4 0.0000000000000000e+00 -2.4381990940658187e+02 -6.0818177573700531e+01 6.6817498212816133e+01 0 0 0
2763 277 6 0.0000000000000000e+00 -2.3466249093800121e+02 -6.0518160321291745e+01 7.1358377425492449e+01 0 0 0
2762 277 6 0.0000000000000000e+00 -2.4293546314109349e+02 -5.9936807868574789e+01 7.6537641121283301e+01 0 0 0
4355 381 8 0.0000000000000000e+00 -2.0732098065563017e+02 -6.2251955888429606e+01 7.5413418576121671e+01 0 0 0
798 80 2 0.0000000000000000e+00 -1.6325483403024421e+02 -9.0676337699925085e+01 4.6011042480822354e+01 0 0 0
1715 172 6 0.0000000000000000e+00 -2.0759628950127811e+02 -8.3689892827514058e+01 6.3346093796085128e+01 0 0 0
5451 439 8 0.0000000000000000e+00 -2.0683174618154226e+02 -7.0460881373255617e+01 6.8184407928869931e+01 0 0 0
800 80 3 0.0000000000000000e+00 -1.7217366594885394e+02 -9.9112540306035470e+01 5.5166965439420352e+01 0 0 0
4356 381 7 0.0000000000000000e+00 -1.9785221848333200e+02 -6.3911917799051068e+01 7.3401830475005298e+01 0 0 0
1716 172 6 0.0000000000000000e+00 -2.0585952677954367e+02 -8.3512836693243599e+01 7.3187838945906762e+01 0 0 0
1262 127 6 0.0000000000000000e+00 -1.7653071459237265e+02 -8.7734515575005048e+01 6.0082459918990189e+01 0 0 0
1261 127 4 0.0000000000000000e+00 -1.8079368596462888e+02 -9.6351409414233984e+01 6.1959684075216465e+01 0 0 0
1717 172 5 0.0000000000000000e+00 -1.9711220362618792e+02 -8.5916282888908370e+01 6.9731994340176300e+01 0 0 0
1718 172 6 0.0000000000000000e+00 -1.8885080447369248e+02 -8.0767222910040218e+01 6.9880838031225906e+01 0 0 0
1719 172 6 0.0000000000000000e+00 -1.8672380383332791e+02 -7.9984414479369534e+01 7.9928010677199453e+01 0 0 0
5456 439 8 0.0000000000000000e+00 -1.6978704971715396e+02 -7.1494249284767434e+01 4.5419339362228001e+01 0 0 0
5455 439 7 0.0000000000000000e+00 -1.7860382193969335e+02 -7.1227302682975917e+01 5.0546398009312696e+01 0 0 0
1268 127 6 0.0000000000000000e+00 -1.8349484082274788e+02 -6.6319587834327777e+01 7.5104468871811846e+01 0 0 0
5452 439 7 0.0000000000000000e+00 -1.9811579651591475e+02 -7.4480820381551396e+01 7.0601119307275354e+01 0 0 0
4357 381 8 0.0000000000000000e+00 -1.9407986471091738e+02 -7.0821197333911741e+01 7.9430764152340487e+01 0 0 0
5453 439 8 0.0000000000000000e+00 -1.9161323473426060e+02 -7.1864401811152320e+01 6.3404527457623416e+01 0 0 0
5454 439 8 0.0000000000000000e+00 -1.8252785514118057e+02 -7.4094229179614260e+01 5.9176476976928051e+01 0 0 0
4358 381 8 0.0000000000000000e+00 -1.9661755282211149e+02 -8.0206928298484769e+01 8.0735385482578735e+01 0 0 0
4359 381 9 0.0000000000000000e+00 -1.9302305185879084e+02 -8.8886010890302515e+01 8.0969899118517162e+01 0 0 0
1266 127 6 0.0000000000000000e+00 -1.7539553964352325e+02 -8.4619794505332720e+01 7.2026056108502218e+01 0 0 0
1263 127 6 0.0000000000000000e+00 -1.7222110129407466e+02 -8.0230393490866433e+01 5.6055955092382405e+01 0 0 0
1264 127 5 0.0000000000000000e+00 -1.7045786870604715e+02 -7.7291935063326903e+01 6.5322512558734630e+01 0 0 0
1267 127 5 0.0000000000000000e+00 -1.7866271747625152e+02 -7.5452229409533729e+01 7.4342734712298196e+01 0 0 0
1265 127 6 0.0000000000000000e+00 -1.6591718755035379e+02 -8.1758602864113570e+01 7.2771845986678699e+01 0 0 0
5460 439 8 0.0000000000000000e+00 -1.6813660000419895e+02 -6.4565292797604883e+01 8.0543191489059438e+01 0 0 0
3676 346 7 0.0000000000000000e+00 -1.6756781690982109e+02 -7.8553568527934829e+01 8.2176224084336653e+01 1 0 0
5459 439 8 0.0000000000000000e+00 -1.6755482422272570e+02 -6.5960962728368017e+01 7.0887943123791928e+01 0 0 0
5457 439 8 0.0000000000000000e+00 -1.6521271401620376e+02 -7.0003714588139133e+01 5.3928822875737843e+01 0 0 0
3677 346 8 0.0000000000000000e+00 -1.6583042658335080e+02 -8.7936557704678378e+01 8.4647058737020203e+01 1 0 0
1269 127 6 0.0000000000000000e+00 -1.8104262248083015e+02 -6.7053345775665917e+01 8.5201543861206474e+01 0 0 0
799 80 2 0.0000000000000000e+00 -1.6258345831679750e+02 -9.8297180590262769e+01 5.2079392236455547e+01 0 0 0
2066 207 6 0.0000000000000000e+00 -2.5487649709391289e+02 -3.7601335045807616e+01 4.4533512116684633e+01 1 0 0
4338 380 8 0.0000000000000000e+00 -2.6839081843699120e+02 -3.8148511543041984e+01 4.8271776520684696e+01 1 0 0
1854 186 5 0.0000000000000000e+00 -2.6743291038066167e+02 -2.0189496712946859e+01 7.0927404346354933e+01 1 0 0
1828 183 6 0.0000000000000000e+00 -2.8418495938361599e+02 -3.9130151385226455e+01 4.3756807615005783e+01 1 0 0
932 94 6 0.0000000000000000e+00 -2.7521894553450471e+02 -5.8487031174536639e+01 6.6201517175497486e+01 1 0 0
4335 380 8 0.0000000000000000e+00 -2.8538945355863052e+02 -5.7974668420640739e+01 5.3817141210236286e+01 1 0 0
4337 380 7 0.0000000000000000e+00 -2.7172006900266166e+02 -4.7480931971064869e+01 4.6200054426215466e+01 1 0 0
4329 380 8 0.0000000000000000e+00 -2.9768910354227631e+02 -2.4216354196220276e+01 6.6972890778936218e+01 1 0 0
933 94 6 0.0000000000000000e+00 -2.7097450007889995e+02 -5.6247159119286522e+01 7.4814723522018397e+01 1 0 0
4339 380 8 0.0000000000000000e+00 -2.7301229070054387e+02 -2.9517930278467553e+01 4.6303139356439786e+01 1 0 0
4340 380 9 0.0000000000000000e+00 -2.8123695540254045e+02 -3.0876908650613448e+01 5.2143049463082406e+01 1 0 0
1855 186 6 0.0000000000000000e+00 -2.7093758148839800e+02 -2.8662331898365728e+01 7.6177768819453689e+01 1 0 0
5346 433 8 0.0000000000000000e+00 -2.7324200291629796e+02 -2.2609858708560520e+01 6.1100524156882493e+01 0 0 0
1858 186 6 0.0000000000000000e+00 -2.9082375516997740e+02 -3.2776468067229793e+01 7.6431274328177523e+01 1 0 0
1860 186 5 0.0000000000000000e+00 -2.9680301010345369e+02 -3.7597185587429649e+01 5.8920935155292661e+01 1 0 0
1856 186 6 0.0000000000000000e+00 -2.7329636337524175e+02 -3.8105483057582269e+01 7.7841780029225646e+01 1 0 0
1857 186 5 0.0000000000000000e+00 -2.8192017841510466e+02 -3.5024929248518234e+01 8.1326747543623910e+01 1 0 0
2067 207 5 0.0000000000000000e+00 -2.5941393369363317e+02 -3.1260709714289494e+01 5.1924523892338058e+01 1 0 0
5345 433 8 0.0000000000000000e+00 -2.6602151623733113e+02 -3.0000582002749688e+01 6.0513387961622065e+01 0 0 0
5344 433 7 0.0000000000000000e+00 -2.6599101003686565e+02 -3.6445891849806415e+01 6.8220359285239098e+01 0 0 0
5343 433 8 0.0000000000000000e+00 -2.6387659479697970e+02 -4.5888384008060534e+01 6.7333493212860390e+01 0 0 0
934 94 5 0.0000000000000000e+00 -2.6784417089462909e+02 -4.8897969828224035e+01 8.0948076124188205e+01 1 0 0
5342 433 8 0.0000000000000000e+00 -2.6486216253648399e+02 -4.2457970909732751e+01 5.7378167302790104e+01 0 0 0
4336 380 8 0.0000000000000000e+00 -2.8004468078811379e+02 -5.0204963824819572e+01 5.1235235900050490e+01 1 0 0
1859 186 6 0.0000000000000000e+00 -2.9114522668257922e+02 -3.5811034695685763e+01 6.6722022931156516e+01 1 0 0
1830 183 5 0.0000000000000000e+00 -2.8571873429686184e+02 -4.8200261275557544e+01 6.0810863661556652e+01 1 0 0
1829 183 6 0.0000000000000000e+00 -2.8643043808069280e+02 -4.1539241800321022e+01 5.3130204499426668e+01 1 0 0
5341 433 7 0.0000000000000000e+00 -2.5609807901644461e+02 -4.1944099953420981e+01 5.3184029894670303e+01 0 0 0